<event>
4 6 1.0 14000.0 7.905138e-03 7.108119e-02
21 -1 0 0 103 101  0.000000e+00  0.000000e+00  8.972239e+02  8.972239e+02 0.0 0.0 9.0
21 -1 0 0 101 102  0.000000e+00  0.000000e+00 -3.045848e+02  3.045848e+02 0.0 0.0 9.0
21  1 1 2 103 102  1.097550e+02 -4.037359e+02  6.565887e+02  7.785612e+02 0.0 0.0 9.0
22  1 1 2   0   0 -1.097550e+02  4.037359e+02 -6.394955e+01  4.232474e+02 0.0 0.0 9.0
#pdf 21 21 1.380344e-01 4.685919e-02 14000.0 2.714614e-01 1.576874e+00
</event>
<event>
4 6 1.0 14000.0 7.905138e-03 7.108119e-02
21 -1 0 0 103 101  0.000000e+00  0.000000e+00  1.480458e+03  1.480458e+03 0.0 0.0 9.0
21 -1 0 0 101 102  0.000000e+00  0.000000e+00 -2.538431e+02  2.538431e+02 0.0 0.0 9.0
21  1 1 2 103 102 -4.800915e+02  3.499881e+02  8.270122e+02  1.018297e+03 0.0 0.0 9.0
22  1 1 2   0   0  4.800915e+02 -3.499881e+02  3.996026e+02  7.160040e+02 0.0 0.0 9.0
#pdf 21 21 2.277627e-01 3.905278e-02 14000.0 7.930903e-02 1.988692e+00
</event>
<event>
4 6 1.0 14000.0 7.905138e-03 7.108119e-02
21 -1 0 0 101 102  0.000000e+00  0.000000e+00  2.040025e+02  2.040025e+02 0.0 0.0 9.0
21 -1 0 0 103 101  0.000000e+00  0.000000e+00 -1.390776e+03  1.390776e+03 0.0 0.0 9.0
22  1 1 2   0   0 -4.015304e+02 -4.056366e+01 -1.113798e+03  1.184660e+03 0.0 0.0 9.0
21  1 1 2 103 102  4.015304e+02  4.056366e+01 -7.297523e+01  4.101188e+02 0.0 0.0 9.0
#pdf 21 21 3.138500e-02 2.139655e-01 14000.0 2.586056e+00 9.483162e-02
</event>
<event>
4 6 1.0 14000.0 7.905138e-03 7.108119e-02
21 -1 0 0 103 101  0.000000e+00  0.000000e+00  1.677300e+02  1.677300e+02 0.0 0.0 9.0
21 -1 0 0 101 102  0.000000e+00  0.000000e+00 -1.505553e+03  1.505553e+03 0.0 0.0 9.0
22  1 1 2   0   0 -6.947892e+01 -3.961001e+02 -1.672186e+02  4.355280e+02 0.0 0.0 9.0
21  1 1 2 103 102  6.947892e+01  3.961001e+02 -1.170605e+03  1.237755e+03 0.0 0.0 9.0
#pdf 21 21 2.580461e-02 2.316236e-01 14000.0 3.231065e+00 7.550634e-02
</event>
