<LesHouchesEvents version="1.0">
<!--
File written by STRINGS - version 3.00, 15 December 2022
1467277 RandGenSEED       random number seed
8000    Number            number of events to generate
5000.0  Ms                string scale [GeV]
13000.0 COME              centre-of-mass energy [GeV]
4170.0  MinMass           minimum invariant mass [GeV}
13000.0 MaxMass           maximum invariant mass [GeV]
2.5     yMax              maximum absolute rapidity
cteq6l1 PDFSet            PDF set used in LHAPDF
5000.0  PDFScale          PDF scale Q [GeV]
-1      Coupling          running coupling constant (alpha_s without 4*pi factor)
5000.0  CouplingScale     running coupling constant scale [GeV]
1       FirstStringCoeff  (enabled)  first  string resonance)
0       SecondStringCoeff (disabled) second string resonance
0       QCDCoeff          (disabled) production of QCD tree-level
0.0047  dMass             mass of down quark [GeV]
0.0022  uMass             mass of up quark [GeV]
0.096   sMass             mass of strange quark [GeV]
1.27    cMass             mass of charm quark [GeV]
4.18    bMass             mass of bottom quark [GeV]
1723.21 tMass             mass of top quark [GeV]
0       gg2gg             (disabled) gg --> gg Subprocess            (ID =  1)
0       gg2qqbar          (disabled) gg --> qqbar Subprocess         (ID =  2)
0       gq2gq             (disabled) gq --> gq Subprocess            (ID =  3)
0       gqbar2gqbar       (disabled) gqbar --> gqbar Subprocess      (ID =  4)
0       qqbar2gg          (disabled) qqbar --> gg Subprocess         (ID =  5)
1       gg2gGamma         (enabled)  gg --> gGamma Subprocess        (ID =  6)
1       gq2qGamma         (enabled)  gq --> qGamma Subprocess        (ID =  7)
0       gg2GammaGamma     (disabled) gg --> GammaGamma Subprocess    (ID =  8)
0       qqbar2GammaGamma  (disabled) qqbar --> GammaGamma Subprocess (ID =  9)
0       gg2ll             (disabled) gg --> ll Subprocess            (ID = 10)
0       qqbar2ll          (disabled) qqbar --> ll Subprocess         (ID = 11)
-->
<init>
2212 2212 6500.0 6500.0 0 0 10042 10042 3 2
2.649466e-05 1.230996e-07 1.000000e+00 6
1.211551e-04 6.375939e-07 1.000000e+00 7
</init>
<event>
4 6 1.0 5000.0 7.905138e-03 7.739137e-02
21 -1 0 0 103 101  0.000000e+00  0.000000e+00  3.523037e+03  3.523037e+03 0.0 0.0 9.0
21 -1 0 0 101 102  0.000000e+00  0.000000e+00 -1.803729e+03  1.803729e+03 0.0 0.0 9.0
21  1 1 2 103 102 -1.939037e+03  1.826670e+02 -8.312768e+02  2.117605e+03 0.0 0.0 9.0
22  1 1 2   0   0  1.939037e+03 -1.826670e+02  2.550584e+03  3.209161e+03 0.0 0.0 9.0
#pdf 21 21 5.420056e-01 2.774968e-01 5000.0 1.554090e-03 4.746479e-02
</event>
<event>
4 6 1.0 5000.0 7.905138e-03 7.739137e-02
21 -1 0 0 101 102  0.000000e+00  0.000000e+00  2.087412e+03  2.087412e+03 0.0 0.0 9.0
21 -1 0 0 103 101  0.000000e+00  0.000000e+00 -3.205502e+03  3.205502e+03 0.0 0.0 9.0
22  1 1 2   0   0  1.645423e+03 -1.245640e+03 -2.154591e+03  2.983505e+03 0.0 0.0 9.0
21  1 1 2 103 102 -1.645423e+03  1.245640e+03  1.036501e+03  2.309409e+03 0.0 0.0 9.0
#pdf 21 21 3.211402e-01 4.931542e-01 5000.0 2.780191e-02 3.096540e-03
</event>
<event>
4 6 1.0 5000.0 7.905138e-03 7.739137e-02
21 -1 0 0 101 102  0.000000e+00  0.000000e+00  1.595207e+03  1.595207e+03 0.0 0.0 9.0
21 -1 0 0 103 101  0.000000e+00  0.000000e+00 -3.639555e+03  3.639555e+03 0.0 0.0 9.0
21  1 1 2 103 102 -2.259500e+03  1.759670e+02 -1.911012e+03  2.964502e+03 0.0 0.0 9.0
22  1 1 2   0   0  2.259500e+03 -1.759670e+02 -1.333348e+02  2.270260e+03 0.0 0.0 9.0
#pdf 21 21 2.454165e-01 5.599315e-01 5000.0 7.057764e-02 1.194526e-03
</event>
<event>
4 6 1.0 5000.0 7.905138e-03 7.739137e-02
21 -1 0 0 101 102  0.000000e+00  0.000000e+00  3.405101e+03  3.405101e+03 0.0 0.0 9.0
21 -1 0 0 103 101  0.000000e+00  0.000000e+00 -1.863007e+03  1.863007e+03 0.0 0.0 9.0
21  1 1 2 103 102  1.878501e+02  1.509551e+03  2.870415e+03  3.248586e+03 0.0 0.0 9.0
22  1 1 2   0   0 -1.878501e+02 -1.509551e+03 -1.328321e+03  2.019522e+03 0.0 0.0 9.0
#pdf 21 21 5.238617e-01 2.866165e-01 5000.0 2.018462e-03 4.244267e-02
</event>
<event>
4 6 1.0 5000.0 7.905138e-03 7.739137e-02
21 -1 0 0 103 101  0.000000e+00  0.000000e+00  1.652796e+03  1.652796e+03 0.0 0.0 9.0
21 -1 0 0 101 102  0.000000e+00  0.000000e+00 -3.576282e+03  3.576282e+03 0.0 0.0 9.0
21  1 1 2 103 102 -2.172205e+03 -1.091226e+03 -9.185376e+02  2.598646e+03 0.0 0.0 9.0
22  1 1 2   0   0  2.172205e+03  1.091226e+03 -1.004949e+03  2.630432e+03 0.0 0.0 9.0
#pdf 21 21 2.542763e-01 5.501972e-01 5000.0 6.328773e-02 1.377593e-03
</event>
<event>
4 6 1.0 5000.0 7.905138e-03 7.739137e-02
21 -1 0 0 101 102  0.000000e+00  0.000000e+00  4.217924e+03  4.217924e+03 0.0 0.0 9.0
21 -1 0 0 103 101  0.000000e+00  0.000000e+00 -1.392969e+03  1.392969e+03 0.0 0.0 9.0
22  1 1 2   0   0 -1.326325e+03 -2.890432e+02  3.736727e+03  3.975652e+03 0.0 0.0 9.0
21  1 1 2 103 102  1.326325e+03  2.890432e+02 -9.117719e+02  1.635241e+03 0.0 0.0 9.0
#pdf 21 21 6.489114e-01 2.143029e-01 5000.0 2.823386e-04 1.046325e-01
</event>
<event>
4 6 1.0 5000.0 7.905138e-03 7.739137e-02
21 -1 0 0 103 101  0.000000e+00  0.000000e+00  2.654512e+03  2.654512e+03 0.0 0.0 9.0
21 -1 0 0 101 102  0.000000e+00  0.000000e+00 -2.719026e+03  2.719026e+03 0.0 0.0 9.0
22  1 1 2   0   0  6.444309e+02 -1.065388e+03 -2.413047e+03  2.715352e+03 0.0 0.0 9.0
21  1 1 2 103 102 -6.444309e+02  1.065388e+03  2.348533e+03  2.658185e+03 0.0 0.0 9.0
#pdf 21 21 4.083864e-01 4.183116e-01 5000.0 9.425584e-03 8.307144e-03
</event>
<event>
4 6 1.0 5000.0 7.905138e-03 7.739137e-02
21 -1 0 0 101 102  0.000000e+00  0.000000e+00  1.803894e+03  1.803894e+03 0.0 0.0 9.0
21 -1 0 0 103 101  0.000000e+00  0.000000e+00 -2.978729e+03  2.978729e+03 0.0 0.0 9.0
21  1 1 2 103 102 -1.459013e+03  1.284698e+02 -2.440897e+03  2.846613e+03 0.0 0.0 9.0
22  1 1 2   0   0  1.459013e+03 -1.284698e+02  1.266063e+03  1.936011e+03 0.0 0.0 9.0
#pdf 21 21 2.775222e-01 4.582660e-01 5000.0 4.744994e-02 4.948576e-03
</event>
<event>
4 6 1.0 5000.0 7.905138e-03 7.739137e-02
21 -1 0 0 101 102  0.000000e+00  0.000000e+00  2.059469e+03  2.059469e+03 0.0 0.0 9.0
21 -1 0 0 103 101  0.000000e+00  0.000000e+00 -3.065521e+03  3.065521e+03 0.0 0.0 9.0
21  1 1 2 103 102  1.205200e+03 -1.669842e+03  9.651453e+02  2.274288e+03 0.0 0.0 9.0
22  1 1 2   0   0 -1.205200e+03  1.669842e+03 -1.971197e+03  2.850701e+03 0.0 0.0 9.0
#pdf 21 21 3.168413e-01 4.716186e-01 5000.0 2.930744e-02 4.144300e-03
</event>
<event>
4 6 1.0 5000.0 7.905138e-03 7.739137e-02
21 -1 0 0 101 102  0.000000e+00  0.000000e+00  3.196106e+03  3.196106e+03 0.0 0.0 9.0
21 -1 0 0 103 101  0.000000e+00  0.000000e+00 -1.845757e+03  1.845757e+03 0.0 0.0 9.0
21  1 1 2 103 102 -6.158809e+02 -1.117546e+03  2.820182e+03  3.095423e+03 0.0 0.0 9.0
22  1 1 2   0   0  6.158809e+02  1.117546e+03 -1.469833e+03  1.946439e+03 0.0 0.0 9.0
#pdf 21 21 4.917086e-01 2.839626e-01 5000.0 3.158168e-03 4.383537e-02
</event>
<event>
4 6 1.0 5000.0 7.905138e-03 7.739137e-02
21 -1 0 0 101 102  0.000000e+00  0.000000e+00  4.584140e+03  4.584140e+03 0.0 0.0 9.0
21 -1 0 0 103 101  0.000000e+00  0.000000e+00 -1.376522e+03  1.376522e+03 0.0 0.0 9.0
21  1 1 2 103 102 -1.703897e+03  6.100555e+02  3.670638e+03  4.092556e+03 0.0 0.0 9.0
22  1 1 2   0   0  1.703897e+03 -6.100555e+02 -4.630200e+02  1.868106e+03 0.0 0.0 9.0
#pdf 21 21 7.052523e-01 2.117726e-01 5000.0 9.730310e-05 1.080597e-01
</event>
<event>
4 6 1.0 5000.0 7.905138e-03 7.739137e-02
21 -1 0 0 101 102  0.000000e+00  0.000000e+00  1.828617e+03  1.828617e+03 0.0 0.0 9.0
21 -1 0 0 103 101  0.000000e+00  0.000000e+00 -3.419838e+03  3.419838e+03 0.0 0.0 9.0
22  1 1 2   0   0 -6.326866e+02  2.329372e+02 -3.322665e+03  3.390377e+03 0.0 0.0 9.0
21  1 1 2 103 102  6.326866e+02 -2.329372e+02  1.731445e+03  1.858078e+03 0.0 0.0 9.0
#pdf 21 21 2.813257e-01 5.261289e-01 5000.0 4.527858e-02 1.954777e-03
</event>
<event>
4 6 1.0 5000.0 7.905138e-03 7.739137e-02
21 -1 0 0 101 102  0.000000e+00  0.000000e+00  3.800287e+03  3.800287e+03 0.0 0.0 9.0
21 -1 0 0 103 101  0.000000e+00  0.000000e+00 -1.764657e+03  1.764657e+03 0.0 0.0 9.0
21  1 1 2 103 102 -1.360248e+03 -3.234330e+02  3.359884e+03  3.639190e+03 0.0 0.0 9.0
22  1 1 2   0   0  1.360248e+03  3.234330e+02 -1.324253e+03  1.925754e+03 0.0 0.0 9.0
#pdf 21 21 5.846596e-01 2.714857e-01 5000.0 8.176862e-04 5.110332e-02
</event>
<event>
4 6 1.0 5000.0 7.905138e-03 7.739137e-02
21 -1 0 0 101 102  0.000000e+00  0.000000e+00  3.965725e+03  3.965725e+03 0.0 0.0 9.0
21 -1 0 0 103 101  0.000000e+00  0.000000e+00 -1.658306e+03  1.658306e+03 0.0 0.0 9.0
22  1 1 2   0   0  1.597325e+03 -1.045089e+03 -7.241368e+02  2.041576e+03 0.0 0.0 9.0
21  1 1 2 103 102 -1.597325e+03  1.045089e+03  3.031555e+03  3.582455e+03 0.0 0.0 9.0
#pdf 21 21 6.101115e-01 2.551241e-01 5000.0 5.452031e-04 6.262040e-02
</event>
<event>
4 6 1.0 5000.0 7.905138e-03 7.739137e-02
21 -1 0 0 103 101  0.000000e+00  0.000000e+00  1.681119e+03  1.681119e+03 0.0 0.0 9.0
21 -1 0 0 101 102  0.000000e+00  0.000000e+00 -2.840627e+03  2.840627e+03 0.0 0.0 9.0
22  1 1 2   0   0  1.971054e+03 -9.305338e+02 -7.416473e+02  2.302387e+03 0.0 0.0 9.0
21  1 1 2 103 102 -1.971054e+03  9.305338e+02 -4.178605e+02  2.219359e+03 0.0 0.0 9.0
#pdf 21 21 2.586337e-01 4.370195e-01 5000.0 5.992522e-02 6.537351e-03
</event>
<event>
4 6 1.0 5000.0 7.905138e-03 7.739137e-02
21 -1 0 0 103 101  0.000000e+00  0.000000e+00  2.593792e+03  2.593792e+03 0.0 0.0 9.0
21 -1 0 0 101 102  0.000000e+00  0.000000e+00 -2.334634e+03  2.334634e+03 0.0 0.0 9.0
21  1 1 2 103 102  8.277525e+01  8.905766e+02  2.425259e+03  2.584930e+03 0.0 0.0 9.0
22  1 1 2   0   0 -8.277525e+01 -8.905766e+02 -2.166102e+03  2.343496e+03 0.0 0.0 9.0
#pdf 21 21 3.990449e-01 3.591745e-01 5000.0 1.060641e-02 1.742373e-02
</event>
<event>
4 6 1.0 5000.0 7.905138e-03 7.739137e-02
21 -1 0 0 103 101  0.000000e+00  0.000000e+00  3.381898e+03  3.381898e+03 0.0 0.0 9.0
21 -1 0 0 101 102  0.000000e+00  0.000000e+00 -1.919239e+03  1.919239e+03 0.0 0.0 9.0
21  1 1 2 103 102  2.505421e+03 -3.380324e+02  4.035294e+02  2.560124e+03 0.0 0.0 9.0
22  1 1 2   0   0 -2.505421e+03  3.380324e+02  1.059129e+03  2.741013e+03 0.0 0.0 9.0
#pdf 21 21 5.202920e-01 2.952676e-01 5000.0 2.122857e-03 3.820708e-02
</event>
<event>
4 6 1.0 5000.0 7.905138e-03 7.739137e-02
21 -1 0 0 103 101  0.000000e+00  0.000000e+00  2.348012e+03  2.348012e+03 0.0 0.0 9.0
21 -1 0 0 101 102  0.000000e+00  0.000000e+00 -2.639674e+03  2.639674e+03 0.0 0.0 9.0
22  1 1 2   0   0 -6.933081e+02  1.815752e+03  1.412585e+03  2.402713e+03 0.0 0.0 9.0
21  1 1 2 103 102  6.933081e+02 -1.815752e+03 -1.704247e+03  2.584974e+03 0.0 0.0 9.0
#pdf 21 21 3.612327e-01 4.061037e-01 5000.0 1.699019e-02 9.702917e-03
</event>
<event>
4 6 1.0 5000.0 7.905138e-03 7.739137e-02
21 -1 0 0 101 102  0.000000e+00  0.000000e+00  1.945644e+03  1.945644e+03 0.0 0.0 9.0
21 -1 0 0 103 101  0.000000e+00  0.000000e+00 -2.788910e+03  2.788910e+03 0.0 0.0 9.0
21  1 1 2 103 102  2.184566e+03  3.369347e+02 -1.168679e+03  2.500333e+03 0.0 0.0 9.0
22  1 1 2   0   0 -2.184566e+03 -3.369347e+02  3.254123e+02  2.234222e+03 0.0 0.0 9.0
#pdf 21 21 2.993298e-01 4.290632e-01 5000.0 3.631823e-02 7.237400e-03
</event>
<event>
4 6 1.0 5000.0 7.905138e-03 7.739137e-02
21 -1 0 0 101 102  0.000000e+00  0.000000e+00  2.455064e+03  2.455064e+03 0.0 0.0 9.0
21 -1 0 0 103 101  0.000000e+00  0.000000e+00 -2.427318e+03  2.427318e+03 0.0 0.0 9.0
21  1 1 2 103 102 -1.140971e+03 -1.410466e+03  1.647298e+03  2.450473e+03 0.0 0.0 9.0
22  1 1 2   0   0  1.140971e+03  1.410466e+03 -1.619553e+03  2.431908e+03 0.0 0.0 9.0
#pdf 21 21 3.777021e-01 3.734335e-01 5000.0 1.386581e-02 1.461022e-02
</event>
<event>
4 6 1.0 5000.0 7.905138e-03 7.739137e-02
21 -1 0 0 103 101  0.000000e+00  0.000000e+00  2.288655e+03  2.288655e+03 0.0 0.0 9.0
21 -1 0 0 101 102  0.000000e+00  0.000000e+00 -2.938460e+03  2.938460e+03 0.0 0.0 9.0
22  1 1 2   0   0  8.758897e+02 -5.457736e+02  2.072787e+03  2.315490e+03 0.0 0.0 9.0
21  1 1 2 103 102 -8.758897e+02  5.457736e+02 -2.722591e+03  2.911624e+03 0.0 0.0 9.0
#pdf 21 21 3.521008e-01 4.520707e-01 5000.0 1.901935e-02 5.371147e-03
</event>
<event>
4 6 1.0 5000.0 7.905138e-03 7.739137e-02
21 -1 0 0 101 102  0.000000e+00  0.000000e+00  4.269318e+03  4.269318e+03 0.0 0.0 9.0
21 -1 0 0 103 101  0.000000e+00  0.000000e+00 -1.274962e+03  1.274962e+03 0.0 0.0 9.0
21  1 1 2 103 102  1.792088e+03  4.668553e+02 -1.889214e+02  1.861511e+03 0.0 0.0 9.0
22  1 1 2   0   0 -1.792088e+03 -4.668553e+02  3.183277e+03  3.682769e+03 0.0 0.0 9.0
#pdf 21 21 6.568181e-01 1.961480e-01 5000.0 2.456330e-04 1.322697e-01
</event>
<event>
4 6 1.0 5000.0 7.905138e-03 7.739137e-02
21 -1 0 0 101 102  0.000000e+00  0.000000e+00  2.750037e+03  2.750037e+03 0.0 0.0 9.0
21 -1 0 0 103 101  0.000000e+00  0.000000e+00 -2.056235e+03  2.056235e+03 0.0 0.0 9.0
21  1 1 2 103 102 -1.229299e+03  1.727884e+03 -7.405765e+02  2.246155e+03 0.0 0.0 9.0
22  1 1 2   0   0  1.229299e+03 -1.727884e+03  1.434379e+03  2.560117e+03 0.0 0.0 9.0
#pdf 21 21 4.230827e-01 3.163439e-01 5000.0 7.816203e-03 2.948773e-02
</event>
<event>
4 6 1.0 5000.0 7.905138e-03 7.739137e-02
21 -1 0 0 101 102  0.000000e+00  0.000000e+00  3.263029e+03  3.263029e+03 0.0 0.0 9.0
21 -1 0 0 103 101  0.000000e+00  0.000000e+00 -1.783587e+03  1.783587e+03 0.0 0.0 9.0
21  1 1 2 103 102  4.706593e+02  1.969577e+03  2.111134e+03  2.925345e+03 0.0 0.0 9.0
22  1 1 2   0   0 -4.706593e+02 -1.969577e+03 -6.316925e+02  2.121271e+03 0.0 0.0 9.0
#pdf 21 21 5.020045e-01 2.743980e-01 5000.0 2.741149e-03 4.930702e-02
</event>
<event>
4 6 1.0 5000.0 7.905138e-03 7.739137e-02
21 -1 0 0 101 102  0.000000e+00  0.000000e+00  2.268354e+03  2.268354e+03 0.0 0.0 9.0
21 -1 0 0 103 101  0.000000e+00  0.000000e+00 -2.865458e+03  2.865458e+03 0.0 0.0 9.0
22  1 1 2   0   0  1.347424e+03  1.888314e+03  7.663110e+02  2.443054e+03 0.0 0.0 9.0
21  1 1 2 103 102 -1.347424e+03 -1.888314e+03 -1.363415e+03  2.690759e+03 0.0 0.0 9.0
#pdf 21 21 3.489776e-01 4.408397e-01 5000.0 1.976695e-02 6.222080e-03
</event>
<event>
4 6 1.0 5000.0 7.905138e-03 7.739137e-02
21 -1 0 0 103 101  0.000000e+00  0.000000e+00  3.483844e+03  3.483844e+03 0.0 0.0 9.0
21 -1 0 0 101 102  0.000000e+00  0.000000e+00 -1.454028e+03  1.454028e+03 0.0 0.0 9.0
22  1 1 2   0   0  4.028488e+02  1.659449e+03  2.623210e+03  3.130062e+03 0.0 0.0 9.0
21  1 1 2 103 102 -4.028488e+02 -1.659449e+03 -5.933933e+02  1.807810e+03 0.0 0.0 9.0
#pdf 21 21 5.359760e-01 2.236966e-01 5000.0 1.696475e-03 9.277915e-02
</event>
<event>
4 6 1.0 5000.0 7.905138e-03 7.739137e-02
21 -1 0 0 101 102  0.000000e+00  0.000000e+00  3.686339e+03  3.686339e+03 0.0 0.0 9.0
21 -1 0 0 103 101  0.000000e+00  0.000000e+00 -1.650210e+03  1.650210e+03 0.0 0.0 9.0
22  1 1 2   0   0 -2.252416e+03 -8.837774e+02  5.005975e+02  2.470838e+03 0.0 0.0 9.0
21  1 1 2 103 102  2.252416e+03  8.837774e+02  1.535531e+03  2.865711e+03 0.0 0.0 9.0
#pdf 21 21 5.671290e-01 2.538784e-01 5000.0 1.071099e-03 6.360288e-02
</event>
<event>
4 6 1.0 5000.0 7.905138e-03 7.739137e-02
21 -1 0 0 101 102  0.000000e+00  0.000000e+00  2.301624e+03  2.301624e+03 0.0 0.0 9.0
21 -1 0 0 103 101  0.000000e+00  0.000000e+00 -2.663935e+03  2.663935e+03 0.0 0.0 9.0
21  1 1 2 103 102 -2.021687e+03  1.421799e+03 -3.026880e+01  2.471770e+03 0.0 0.0 9.0
22  1 1 2   0   0  2.021687e+03 -1.421799e+03 -3.320422e+02  2.493789e+03 0.0 0.0 9.0
#pdf 21 21 3.540960e-01 4.098362e-01 5000.0 1.855265e-02 9.253073e-03
</event>
<event>
4 6 1.0 5000.0 7.905138e-03 7.739137e-02
21 -1 0 0 103 101  0.000000e+00  0.000000e+00  3.591507e+03  3.591507e+03 0.0 0.0 9.0
21 -1 0 0 101 102  0.000000e+00  0.000000e+00 -1.579799e+03  1.579799e+03 0.0 0.0 9.0
21  1 1 2 103 102 -1.342353e+03  1.236673e+03  2.667272e+03  3.231967e+03 0.0 0.0 9.0
22  1 1 2   0   0  1.342353e+03 -1.236673e+03 -6.555633e+02  1.939339e+03 0.0 0.0 9.0
#pdf 21 21 5.525396e-01 2.430460e-01 5000.0 1.330753e-03 7.276338e-02
</event>
<event>
4 6 1.0 5000.0 7.905138e-03 7.739137e-02
21 -1 0 0 101 102  0.000000e+00  0.000000e+00  2.282263e+03  2.282263e+03 0.0 0.0 9.0
21 -1 0 0 103 101  0.000000e+00  0.000000e+00 -2.788963e+03  2.788963e+03 0.0 0.0 9.0
21  1 1 2 103 102 -5.030936e+02 -2.189574e+03 -1.407082e+03  2.650890e+03 0.0 0.0 9.0
22  1 1 2   0   0  5.030936e+02  2.189574e+03  9.003825e+02  2.420336e+03 0.0 0.0 9.0
#pdf 21 21 3.511174e-01 4.290712e-01 5000.0 1.925236e-02 7.236650e-03
</event>
<event>
4 6 1.0 5000.0 7.905138e-03 7.739137e-02
21 -1 0 0 101 102  0.000000e+00  0.000000e+00  2.794391e+03  2.794391e+03 0.0 0.0 9.0
21 -1 0 0 103 101  0.000000e+00  0.000000e+00 -1.863448e+03  1.863448e+03 0.0 0.0 9.0
21  1 1 2 103 102 -1.272564e+03 -1.743359e+03  1.221319e+03  2.479988e+03 0.0 0.0 9.0
22  1 1 2   0   0  1.272564e+03  1.743359e+03 -2.903760e+02  2.177852e+03 0.0 0.0 9.0
#pdf 21 21 4.299064e-01 2.866843e-01 5000.0 7.159601e-03 4.240776e-02
</event>
<event>
4 6 1.0 5000.0 7.905138e-03 7.739137e-02
21 -1 0 0 103 101  0.000000e+00  0.000000e+00  1.744137e+03  1.744137e+03 0.0 0.0 9.0
21 -1 0 0 101 102  0.000000e+00  0.000000e+00 -3.039603e+03  3.039603e+03 0.0 0.0 9.0
22  1 1 2   0   0  1.890028e+03  1.926471e+02  7.035936e+02  2.025922e+03 0.0 0.0 9.0
21  1 1 2 103 102 -1.890028e+03 -1.926471e+02 -1.999059e+03  2.757817e+03 0.0 0.0 9.0
#pdf 21 21 2.683288e-01 4.676312e-01 5000.0 5.312732e-02 4.370377e-03
</event>
<event>
4 6 1.0 5000.0 7.905138e-03 7.739137e-02
21 -1 0 0 103 101  0.000000e+00  0.000000e+00  2.940138e+03  2.940138e+03 0.0 0.0 9.0
21 -1 0 0 101 102  0.000000e+00  0.000000e+00 -1.793864e+03  1.793864e+03 0.0 0.0 9.0
21  1 1 2 103 102 -2.127342e+03 -5.757194e+02 -9.256193e+01  2.205811e+03 0.0 0.0 9.0
22  1 1 2   0   0  2.127342e+03  5.757194e+02  1.238836e+03  2.528191e+03 0.0 0.0 9.0
#pdf 21 21 4.523290e-01 2.759791e-01 5000.0 5.353062e-03 4.835852e-02
</event>
<event>
4 6 1.0 5000.0 7.905138e-03 7.739137e-02
21 -1 0 0 101 102  0.000000e+00  0.000000e+00  3.228673e+03  3.228673e+03 0.0 0.0 9.0
21 -1 0 0 103 101  0.000000e+00  0.000000e+00 -1.825344e+03  1.825344e+03 0.0 0.0 9.0
22  1 1 2   0   0 -1.027422e+03  3.780123e+02 -1.553809e+03  1.900740e+03 0.0 0.0 9.0
21  1 1 2 103 102  1.027422e+03 -3.780123e+02  2.957139e+03  3.153277e+03 0.0 0.0 9.0
#pdf 21 21 4.967190e-01 2.808222e-01 5000.0 2.949009e-03 4.556074e-02
</event>
<event>
4 6 1.0 5000.0 7.905138e-03 7.739137e-02
21 -1 0 0 101 102  0.000000e+00  0.000000e+00  2.840052e+03  2.840052e+03 0.0 0.0 9.0
21 -1 0 0 103 101  0.000000e+00  0.000000e+00 -2.126931e+03  2.126931e+03 0.0 0.0 9.0
22  1 1 2   0   0  1.064541e+02  1.734201e+03  2.113095e+03  2.735681e+03 0.0 0.0 9.0
21  1 1 2 103 102 -1.064541e+02 -1.734201e+03 -1.399973e+03  2.231302e+03 0.0 0.0 9.0
#pdf 21 21 4.369311e-01 3.272202e-01 5000.0 6.544770e-03 2.580937e-02
</event>
<event>
4 6 1.0 5000.0 7.905138e-03 7.739137e-02
21 -1 0 0 101 102  0.000000e+00  0.000000e+00  2.216550e+03  2.216550e+03 0.0 0.0 9.0
21 -1 0 0 103 101  0.000000e+00  0.000000e+00 -2.074603e+03  2.074603e+03 0.0 0.0 9.0
21  1 1 2 103 102  1.955604e+03 -6.800968e+02 -4.874934e+02  2.127103e+03 0.0 0.0 9.0
22  1 1 2   0   0 -1.955604e+03  6.800968e+02  6.294405e+02  2.164050e+03 0.0 0.0 9.0
#pdf 21 21 3.410077e-01 3.191697e-01 5000.0 2.179242e-02 2.848126e-02
</event>
<event>
4 6 1.0 5000.0 7.905138e-03 7.739137e-02
21 -1 0 0 101 102  0.000000e+00  0.000000e+00  3.043431e+03  3.043431e+03 0.0 0.0 9.0
21 -1 0 0 103 101  0.000000e+00  0.000000e+00 -2.056031e+03  2.056031e+03 0.0 0.0 9.0
22  1 1 2   0   0 -1.575969e+03 -1.492048e+03 -7.742827e+02  2.304214e+03 0.0 0.0 9.0
21  1 1 2 103 102  1.575969e+03  1.492048e+03  1.761682e+03  2.795248e+03 0.0 0.0 9.0
#pdf 21 21 4.682201e-01 3.163125e-01 5000.0 4.336313e-03 2.949916e-02
</event>
<event>
4 6 1.0 5000.0 7.905138e-03 7.739137e-02
21 -1 0 0 101 102  0.000000e+00  0.000000e+00  2.616659e+03  2.616659e+03 0.0 0.0 9.0
21 -1 0 0 103 101  0.000000e+00  0.000000e+00 -2.477212e+03  2.477212e+03 0.0 0.0 9.0
21  1 1 2 103 102 -1.219634e+03  8.528936e+02  2.136190e+03  2.603506e+03 0.0 0.0 9.0
22  1 1 2   0   0  1.219634e+03 -8.528936e+02 -1.996744e+03  2.490365e+03 0.0 0.0 9.0
#pdf 21 21 4.025629e-01 3.811096e-01 5000.0 1.014699e-02 1.329041e-02
</event>
<event>
4 6 1.0 5000.0 7.905138e-03 7.739137e-02
21 -1 0 0 101 102  0.000000e+00  0.000000e+00  1.514422e+03  1.514422e+03 0.0 0.0 9.0
21 -1 0 0 103 101  0.000000e+00  0.000000e+00 -2.933210e+03  2.933210e+03 0.0 0.0 9.0
22  1 1 2   0   0 -2.616961e+02  1.985717e+03 -1.705075e+01  2.002960e+03 0.0 0.0 9.0
21  1 1 2 103 102  2.616961e+02 -1.985717e+03 -1.401737e+03  2.444672e+03 0.0 0.0 9.0
#pdf 21 21 2.329881e-01 4.512631e-01 5000.0 8.250597e-02 5.427919e-03
</event>
<event>
4 6 1.0 5000.0 7.905138e-03 7.739137e-02
21 -1 0 0 101 102  0.000000e+00  0.000000e+00  3.151345e+03  3.151345e+03 0.0 0.0 9.0
21 -1 0 0 103 101  0.000000e+00  0.000000e+00 -1.532408e+03  1.532408e+03 0.0 0.0 9.0
21  1 1 2 103 102 -1.148887e+03  1.588519e+03  1.867567e+03  2.707608e+03 0.0 0.0 9.0
22  1 1 2   0   0  1.148887e+03 -1.588519e+03 -2.486302e+02  1.976145e+03 0.0 0.0 9.0
#pdf 21 21 4.848223e-01 2.357551e-01 5000.0 3.467804e-03 7.972084e-02
</event>
<event>
4 6 1.0 5000.0 7.905138e-03 7.739137e-02
21 -1 0 0 103 101  0.000000e+00  0.000000e+00  2.735975e+03  2.735975e+03 0.0 0.0 9.0
21 -1 0 0 101 102  0.000000e+00  0.000000e+00 -2.357181e+03  2.357181e+03 0.0 0.0 9.0
22  1 1 2   0   0 -4.858166e+02  5.501969e+02 -2.248497e+03  2.365264e+03 0.0 0.0 9.0
21  1 1 2 103 102  4.858166e+02 -5.501969e+02  2.627291e+03  2.727892e+03 0.0 0.0 9.0
#pdf 21 21 4.209192e-01 3.626432e-01 5000.0 8.035480e-03 1.669899e-02
</event>
<event>
4 6 1.0 5000.0 7.905138e-03 7.739137e-02
21 -1 0 0 101 102  0.000000e+00  0.000000e+00  2.865886e+03  2.865886e+03 0.0 0.0 9.0
21 -1 0 0 103 101  0.000000e+00  0.000000e+00 -1.648471e+03  1.648471e+03 0.0 0.0 9.0
22  1 1 2   0   0 -2.061595e+03  5.309797e+02  1.064001e+03  2.379961e+03 0.0 0.0 9.0
21  1 1 2 103 102  2.061595e+03 -5.309797e+02  1.534141e+02  2.134397e+03 0.0 0.0 9.0
#pdf 21 21 4.409056e-01 2.536110e-01 5000.0 6.216729e-03 6.381549e-02
</event>
<event>
4 6 1.0 5000.0 7.905138e-03 7.739137e-02
21 -1 0 0 101 102  0.000000e+00  0.000000e+00  1.751845e+03  1.751845e+03 0.0 0.0 9.0
21 -1 0 0 103 101  0.000000e+00  0.000000e+00 -3.106797e+03  3.106797e+03 0.0 0.0 9.0
21  1 1 2 103 102 -1.032914e+03  4.535402e+02  1.448946e+03  1.836316e+03 0.0 0.0 9.0
22  1 1 2   0   0  1.032914e+03 -4.535402e+02 -2.803898e+03  3.022326e+03 0.0 0.0 9.0
#pdf 21 21 2.695146e-01 4.779688e-01 5000.0 5.235724e-02 3.805489e-03
</event>
<event>
4 6 1.0 5000.0 7.905138e-03 7.739137e-02
21 -1 0 0 101 102  0.000000e+00  0.000000e+00  1.794299e+03  1.794299e+03 0.0 0.0 9.0
21 -1 0 0 103 101  0.000000e+00  0.000000e+00 -3.572352e+03  3.572352e+03 0.0 0.0 9.0
21  1 1 2 103 102  9.406643e+02  7.820861e+02 -3.238325e+03  3.461684e+03 0.0 0.0 9.0
22  1 1 2   0   0 -9.406643e+02 -7.820861e+02  1.460272e+03  1.904968e+03 0.0 0.0 9.0
#pdf 21 21 2.760460e-01 5.495927e-01 5000.0 4.831876e-02 1.390083e-03
</event>
<event>
4 6 1.0 5000.0 7.905138e-03 7.739137e-02
21 -1 0 0 101 102  0.000000e+00  0.000000e+00  2.009040e+03  2.009040e+03 0.0 0.0 9.0
21 -1 0 0 103 101  0.000000e+00  0.000000e+00 -3.227004e+03  3.227004e+03 0.0 0.0 9.0
22  1 1 2   0   0 -4.531911e+02 -2.436451e+03 -8.114393e+00  2.478253e+03 0.0 0.0 9.0
21  1 1 2 103 102  4.531911e+02  2.436451e+03 -1.209849e+03  2.757790e+03 0.0 0.0 9.0
#pdf 21 21 3.090831e-01 4.964621e-01 5000.0 3.225873e-02 2.959440e-03
</event>
<event>
4 6 1.0 5000.0 7.905138e-03 7.739137e-02
21 -1 0 0 103 101  0.000000e+00  0.000000e+00  3.324446e+03  3.324446e+03 0.0 0.0 9.0
21 -1 0 0 101 102  0.000000e+00  0.000000e+00 -1.850194e+03  1.850194e+03 0.0 0.0 9.0
21  1 1 2 103 102 -1.771715e+03 -1.578898e+03  1.488676e+03  2.801436e+03 0.0 0.0 9.0
22  1 1 2   0   0  1.771715e+03  1.578898e+03 -1.442318e+01  2.373204e+03 0.0 0.0 9.0
#pdf 21 21 5.114533e-01 2.846452e-01 5000.0 2.404268e-03 4.347176e-02
</event>
<event>
4 6 1.0 5000.0 7.905138e-03 7.739137e-02
21 -1 0 0 103 101  0.000000e+00  0.000000e+00  3.455139e+03  3.455139e+03 0.0 0.0 9.0
21 -1 0 0 101 102  0.000000e+00  0.000000e+00 -1.858796e+03  1.858796e+03 0.0 0.0 9.0
21  1 1 2 103 102  1.858182e+03 -1.718622e+03  6.659862e+02  2.617258e+03 0.0 0.0 9.0
22  1 1 2   0   0 -1.858182e+03  1.718622e+03  9.303563e+02  2.696677e+03 0.0 0.0 9.0
#pdf 21 21 5.315598e-01 2.859687e-01 5000.0 1.809144e-03 4.277760e-02
</event>
<event>
4 6 1.0 5000.0 7.905138e-03 7.739137e-02
21 -1 0 0 103 101  0.000000e+00  0.000000e+00  4.904232e+03  4.904232e+03 0.0 0.0 9.0
21 -1 0 0 101 102  0.000000e+00  0.000000e+00 -1.220995e+03  1.220995e+03 0.0 0.0 9.0
21  1 1 2 103 102  1.258192e+03 -9.971553e+02  4.152992e+03  4.452495e+03 0.0 0.0 9.0
22  1 1 2   0   0 -1.258192e+03  9.971553e+02 -4.697547e+02  1.672733e+03 0.0 0.0 9.0
#pdf 21 21 7.544973e-01 1.878454e-01 5000.0 3.308543e-05 1.477125e-01
</event>
<event>
4 6 1.0 5000.0 7.905138e-03 7.739137e-02
21 -1 0 0 103 101  0.000000e+00  0.000000e+00  1.955437e+03  1.955437e+03 0.0 0.0 9.0
21 -1 0 0 101 102  0.000000e+00  0.000000e+00 -2.494663e+03  2.494663e+03 0.0 0.0 9.0
22  1 1 2   0   0 -1.154290e+03  1.184265e+03 -1.744477e+03  2.403761e+03 0.0 0.0 9.0
21  1 1 2 103 102  1.154290e+03 -1.184265e+03  1.205251e+03  2.046338e+03 0.0 0.0 9.0
#pdf 21 21 3.008364e-01 3.837943e-01 5000.0 3.564774e-02 1.285034e-02
</event>
<event>
4 6 1.0 5000.0 7.905138e-03 7.739137e-02
21 -1 0 0 103 101  0.000000e+00  0.000000e+00  2.984474e+03  2.984474e+03 0.0 0.0 9.0
21 -1 0 0 101 102  0.000000e+00  0.000000e+00 -2.424935e+03  2.424935e+03 0.0 0.0 9.0
22  1 1 2   0   0  1.446680e+03  2.210519e+03  7.903285e+02  2.757516e+03 0.0 0.0 9.0
21  1 1 2 103 102 -1.446680e+03 -2.210519e+03 -2.307895e+02  2.651894e+03 0.0 0.0 9.0
#pdf 21 21 4.591499e-01 3.730670e-01 5000.0 4.890606e-03 1.467524e-02
</event>
<event>
4 6 1.0 5000.0 7.905138e-03 7.739137e-02
21 -1 0 0 103 101  0.000000e+00  0.000000e+00  3.012655e+03  3.012655e+03 0.0 0.0 9.0
21 -1 0 0 101 102  0.000000e+00  0.000000e+00 -2.254279e+03  2.254279e+03 0.0 0.0 9.0
21  1 1 2 103 102 -2.135780e+03  1.385286e+03 -1.841686e+02  2.552350e+03 0.0 0.0 9.0
22  1 1 2   0   0  2.135780e+03 -1.385286e+03  9.425447e+02  2.714584e+03 0.0 0.0 9.0
#pdf 21 21 4.634854e-01 3.468122e-01 5000.0 4.616980e-03 2.029916e-02
</event>
<event>
4 6 1.0 5000.0 7.905138e-03 7.739137e-02
21 -1 0 0 101 102  0.000000e+00  0.000000e+00  2.519084e+03  2.519084e+03 0.0 0.0 9.0
21 -1 0 0 103 101  0.000000e+00  0.000000e+00 -2.569073e+03  2.569073e+03 0.0 0.0 9.0
21  1 1 2 103 102  3.225731e+01 -1.722597e+03  1.846815e+03  2.525689e+03 0.0 0.0 9.0
22  1 1 2   0   0 -3.225731e+01  1.722597e+03 -1.896804e+03  2.562469e+03 0.0 0.0 9.0
#pdf 21 21 3.875514e-01 3.952420e-01 5000.0 1.225611e-02 1.112549e-02
</event>
<event>
4 6 1.0 5000.0 7.905138e-03 7.739137e-02
21 -1 0 0 103 101  0.000000e+00  0.000000e+00  2.382141e+03  2.382141e+03 0.0 0.0 9.0
21 -1 0 0 101 102  0.000000e+00  0.000000e+00 -2.302646e+03  2.302646e+03 0.0 0.0 9.0
21  1 1 2 103 102  1.882829e+03  4.873520e+01  1.431999e+03  2.366018e+03 0.0 0.0 9.0
22  1 1 2   0   0 -1.882829e+03 -4.873520e+01 -1.352504e+03  2.318769e+03 0.0 0.0 9.0
#pdf 21 21 3.664833e-01 3.542532e-01 5000.0 1.592355e-02 1.851621e-02
</event>
<event>
4 6 1.0 5000.0 7.905138e-03 7.739137e-02
21 -1 0 0 101 102  0.000000e+00  0.000000e+00  2.335695e+03  2.335695e+03 0.0 0.0 9.0
21 -1 0 0 103 101  0.000000e+00  0.000000e+00 -2.693132e+03  2.693132e+03 0.0 0.0 9.0
22  1 1 2   0   0  2.345375e+03  3.880709e+02  6.226516e+02  2.457454e+03 0.0 0.0 9.0
21  1 1 2 103 102 -2.345375e+03 -3.880709e+02 -9.800891e+02  2.571373e+03 0.0 0.0 9.0
#pdf 21 21 3.593376e-01 4.143280e-01 5000.0 1.738894e-02 8.739054e-03
</event>
<event>
4 6 1.0 5000.0 7.905138e-03 7.739137e-02
21 -1 0 0 103 101  0.000000e+00  0.000000e+00  3.432893e+03  3.432893e+03 0.0 0.0 9.0
21 -1 0 0 101 102  0.000000e+00  0.000000e+00 -1.405018e+03  1.405018e+03 0.0 0.0 9.0
22  1 1 2   0   0  1.484393e+03  4.266306e+02 -7.057891e+02  1.698109e+03 0.0 0.0 9.0
21  1 1 2 103 102 -1.484393e+03 -4.266306e+02  2.733664e+03  3.139802e+03 0.0 0.0 9.0
#pdf 21 21 5.281374e-01 2.161566e-01 5000.0 1.899862e-03 1.021836e-01
</event>
<event>
4 6 1.0 5000.0 7.905138e-03 7.739137e-02
21 -1 0 0 103 101  0.000000e+00  0.000000e+00  2.484304e+03  2.484304e+03 0.0 0.0 9.0
21 -1 0 0 101 102  0.000000e+00  0.000000e+00 -2.548493e+03  2.548493e+03 0.0 0.0 9.0
21  1 1 2 103 102 -5.304837e+02 -8.150278e+01  2.426393e+03  2.485043e+03 0.0 0.0 9.0
22  1 1 2   0   0  5.304837e+02  8.150278e+01 -2.490581e+03  2.547754e+03 0.0 0.0 9.0
#pdf 21 21 3.822006e-01 3.920758e-01 5000.0 1.311009e-02 1.157710e-02
</event>
<event>
4 6 1.0 5000.0 7.905138e-03 7.739137e-02
21 -1 0 0 103 101  0.000000e+00  0.000000e+00  4.503181e+03  4.503181e+03 0.0 0.0 9.0
21 -1 0 0 101 102  0.000000e+00  0.000000e+00 -1.444527e+03  1.444527e+03 0.0 0.0 9.0
21  1 1 2 103 102  2.260442e+03  5.846674e+02  2.726125e+03  3.589316e+03 0.0 0.0 9.0
22  1 1 2   0   0 -2.260442e+03 -5.846674e+02  3.325290e+02  2.358391e+03 0.0 0.0 9.0
#pdf 21 21 6.927970e-01 2.222349e-01 5000.0 1.249516e-04 9.453113e-02
</event>
<event>
4 6 1.0 5000.0 7.905138e-03 7.739137e-02
21 -1 0 0 101 102  0.000000e+00  0.000000e+00  2.347636e+03  2.347636e+03 0.0 0.0 9.0
21 -1 0 0 103 101  0.000000e+00  0.000000e+00 -1.931441e+03  1.931441e+03 0.0 0.0 9.0
22  1 1 2   0   0  1.521458e+03  4.698000e+02 -1.212418e+03  2.001375e+03 0.0 0.0 9.0
21  1 1 2 103 102 -1.521458e+03 -4.698000e+02  1.628612e+03  2.277702e+03 0.0 0.0 9.0
#pdf 21 21 3.611748e-01 2.971448e-01 5000.0 1.700224e-02 3.732935e-02
</event>
<event>
4 6 1.0 5000.0 7.905138e-03 7.739137e-02
21 -1 0 0 103 101  0.000000e+00  0.000000e+00  2.013047e+03  2.013047e+03 0.0 0.0 9.0
21 -1 0 0 101 102  0.000000e+00  0.000000e+00 -3.672602e+03  3.672602e+03 0.0 0.0 9.0
21  1 1 2 103 102  2.623096e+02 -2.037258e+03  1.032878e+03  2.299144e+03 0.0 0.0 9.0
22  1 1 2   0   0 -2.623096e+02  2.037258e+03 -2.692432e+03  3.386505e+03 0.0 0.0 9.0
#pdf 21 21 3.096996e-01 5.650157e-01 5000.0 3.201434e-02 1.106283e-03
</event>
<event>
4 6 1.0 5000.0 7.905138e-03 7.739137e-02
21 -1 0 0 101 102  0.000000e+00  0.000000e+00  2.625499e+03  2.625499e+03 0.0 0.0 9.0
21 -1 0 0 103 101  0.000000e+00  0.000000e+00 -2.347233e+03  2.347233e+03 0.0 0.0 9.0
22  1 1 2   0   0  1.897487e+03  1.416323e+03  8.861128e+02  2.528166e+03 0.0 0.0 9.0
21  1 1 2 103 102 -1.897487e+03 -1.416323e+03 -6.078465e+02  2.444566e+03 0.0 0.0 9.0
#pdf 21 21 4.039229e-01 3.611127e-01 5000.0 9.974334e-03 1.701516e-02
</event>
<event>
4 6 1.0 5000.0 7.905138e-03 7.739137e-02
21 -1 0 0 103 101  0.000000e+00  0.000000e+00  2.982903e+03  2.982903e+03 0.0 0.0 9.0
21 -1 0 0 101 102  0.000000e+00  0.000000e+00 -2.302070e+03  2.302070e+03 0.0 0.0 9.0
21  1 1 2 103 102 -3.894202e+02  2.178539e+03 -1.074647e+03  2.460192e+03 0.0 0.0 9.0
22  1 1 2   0   0  3.894202e+02 -2.178539e+03  1.755479e+03  2.824781e+03 0.0 0.0 9.0
#pdf 21 21 4.589081e-01 3.541647e-01 5000.0 4.906396e-03 1.853672e-02
</event>
<event>
4 6 1.0 5000.0 7.905138e-03 7.739137e-02
21 -1 0 0 103 101  0.000000e+00  0.000000e+00  2.545034e+03  2.545034e+03 0.0 0.0 9.0
21 -1 0 0 101 102  0.000000e+00  0.000000e+00 -2.438090e+03  2.438090e+03 0.0 0.0 9.0
21  1 1 2 103 102 -2.475779e+03 -2.196816e+02 -1.117236e+02  2.488017e+03 0.0 0.0 9.0
22  1 1 2   0   0  2.475779e+03  2.196816e+02  2.186678e+02  2.495107e+03 0.0 0.0 9.0
#pdf 21 21 3.915437e-01 3.750907e-01 5000.0 1.165484e-02 1.431834e-02
</event>
<event>
4 6 1.0 5000.0 7.905138e-03 7.739137e-02
21 -1 0 0 101 102  0.000000e+00  0.000000e+00  3.140222e+03  3.140222e+03 0.0 0.0 9.0
21 -1 0 0 103 101  0.000000e+00  0.000000e+00 -1.967548e+03  1.967548e+03 0.0 0.0 9.0
21  1 1 2 103 102 -2.344747e+03 -7.784506e+02  8.671750e+02  2.618362e+03 0.0 0.0 9.0
22  1 1 2   0   0  2.344747e+03  7.784506e+02  3.054983e+02  2.489409e+03 0.0 0.0 9.0
#pdf 21 21 4.831110e-01 3.026998e-01 5000.0 3.549270e-03 3.486592e-02
</event>
<event>
4 6 1.0 5000.0 7.905138e-03 7.739137e-02
21 -1 0 0 103 101  0.000000e+00  0.000000e+00  1.925693e+03  1.925693e+03 0.0 0.0 9.0
21 -1 0 0 101 102  0.000000e+00  0.000000e+00 -2.335105e+03  2.335105e+03 0.0 0.0 9.0
22  1 1 2   0   0 -1.051714e+03 -4.526397e+02 -1.997859e+03  2.302700e+03 0.0 0.0 9.0
21  1 1 2 103 102  1.051714e+03  4.526397e+02  1.588447e+03  1.958098e+03 0.0 0.0 9.0
#pdf 21 21 2.962605e-01 3.592469e-01 5000.0 3.774161e-02 1.740827e-02
</event>
<event>
4 6 1.0 5000.0 7.905138e-03 7.739137e-02
21 -1 0 0 101 102  0.000000e+00  0.000000e+00  3.462521e+03  3.462521e+03 0.0 0.0 9.0
21 -1 0 0 103 101  0.000000e+00  0.000000e+00 -1.845704e+03  1.845704e+03 0.0 0.0 9.0
22  1 1 2   0   0  1.610810e+03  1.935372e+03  5.726788e+02  2.582312e+03 0.0 0.0 9.0
21  1 1 2 103 102 -1.610810e+03 -1.935372e+03  1.044138e+03  2.725913e+03 0.0 0.0 9.0
#pdf 21 21 5.326955e-01 2.839544e-01 5000.0 1.779741e-03 4.383973e-02
</event>
<event>
4 6 1.0 5000.0 7.905138e-03 7.739137e-02
21 -1 0 0 103 101  0.000000e+00  0.000000e+00  2.403786e+03  2.403786e+03 0.0 0.0 9.0
21 -1 0 0 101 102  0.000000e+00  0.000000e+00 -2.614887e+03  2.614887e+03 0.0 0.0 9.0
21  1 1 2 103 102 -1.026029e+03  1.498389e+03 -1.835585e+03  2.582107e+03 0.0 0.0 9.0
22  1 1 2   0   0  1.026029e+03 -1.498389e+03  1.624484e+03  2.436566e+03 0.0 0.0 9.0
#pdf 21 21 3.698132e-01 4.022903e-01 5000.0 1.527113e-02 1.018191e-02
</event>
<event>
4 6 1.0 5000.0 7.905138e-03 7.739137e-02
21 -1 0 0 103 101  0.000000e+00  0.000000e+00  3.340685e+03  3.340685e+03 0.0 0.0 9.0
21 -1 0 0 101 102  0.000000e+00  0.000000e+00 -1.815479e+03  1.815479e+03 0.0 0.0 9.0
22  1 1 2   0   0  7.718039e+02 -1.365372e+03 -1.225035e+03  1.990134e+03 0.0 0.0 9.0
21  1 1 2 103 102 -7.718039e+02  1.365372e+03  2.750242e+03  3.166031e+03 0.0 0.0 9.0
#pdf 21 21 5.139516e-01 2.793045e-01 5000.0 2.321724e-03 4.642078e-02
</event>
<event>
4 6 1.0 5000.0 7.905138e-03 7.739137e-02
21 -1 0 0 103 101  0.000000e+00  0.000000e+00  3.780271e+03  3.780271e+03 0.0 0.0 9.0
21 -1 0 0 101 102  0.000000e+00  0.000000e+00 -1.597480e+03  1.597480e+03 0.0 0.0 9.0
22  1 1 2   0   0 -2.619475e+02 -2.442803e+03  1.031436e+03  2.664539e+03 0.0 0.0 9.0
21  1 1 2 103 102  2.619475e+02  2.442803e+03  1.151355e+03  2.713213e+03 0.0 0.0 9.0
#pdf 21 21 5.815802e-01 2.457662e-01 5000.0 8.576221e-04 7.026706e-02
</event>
<event>
4 6 1.0 5000.0 7.905138e-03 7.739137e-02
21 -1 0 0 103 101  0.000000e+00  0.000000e+00  1.863321e+03  1.863321e+03 0.0 0.0 9.0
21 -1 0 0 101 102  0.000000e+00  0.000000e+00 -3.385504e+03  3.385504e+03 0.0 0.0 9.0
21  1 1 2 103 102 -1.389106e+03 -1.818638e+03  3.203833e+02  2.310780e+03 0.0 0.0 9.0
22  1 1 2   0   0  1.389106e+03  1.818638e+03 -1.842566e+03  2.938045e+03 0.0 0.0 9.0
#pdf 21 21 2.866648e-01 5.208468e-01 5000.0 4.241780e-02 2.106273e-03
</event>
<event>
4 6 1.0 5000.0 7.905138e-03 7.739137e-02
21 -1 0 0 103 101  0.000000e+00  0.000000e+00  3.773385e+03  3.773385e+03 0.0 0.0 9.0
21 -1 0 0 101 102  0.000000e+00  0.000000e+00 -1.769921e+03  1.769921e+03 0.0 0.0 9.0
21  1 1 2 103 102  1.403942e+03  1.239620e+03 -9.080620e+02  2.081415e+03 0.0 0.0 9.0
22  1 1 2   0   0 -1.403942e+03 -1.239620e+03  2.911526e+03  3.461892e+03 0.0 0.0 9.0
#pdf 21 21 5.805208e-01 2.722956e-01 5000.0 8.717562e-04 5.059719e-02
</event>
<event>
4 6 1.0 5000.0 7.905138e-03 7.739137e-02
21 -1 0 0 103 101  0.000000e+00  0.000000e+00  2.110937e+03  2.110937e+03 0.0 0.0 9.0
21 -1 0 0 101 102  0.000000e+00  0.000000e+00 -2.937105e+03  2.937105e+03 0.0 0.0 9.0
21  1 1 2 103 102  1.190869e+03 -2.019547e+03 -1.263180e+03  2.663149e+03 0.0 0.0 9.0
22  1 1 2   0   0 -1.190869e+03  2.019547e+03  4.370120e+02  2.384893e+03 0.0 0.0 9.0
#pdf 21 21 3.247595e-01 4.518623e-01 5000.0 2.659774e-02 5.385766e-03
</event>
<event>
4 6 1.0 5000.0 7.905138e-03 7.739137e-02
21 -1 0 0 103 101  0.000000e+00  0.000000e+00  2.592258e+03  2.592258e+03 0.0 0.0 9.0
21 -1 0 0 101 102  0.000000e+00  0.000000e+00 -2.473511e+03  2.473511e+03 0.0 0.0 9.0
22  1 1 2   0   0 -3.057984e+02 -2.337929e+03 -8.642185e+02  2.511235e+03 0.0 0.0 9.0
21  1 1 2 103 102  3.057984e+02  2.337929e+03  9.829652e+02  2.554535e+03 0.0 0.0 9.0
#pdf 21 21 3.988089e-01 3.805402e-01 5000.0 1.063792e-02 1.338529e-02
</event>
<event>
4 6 1.0 5000.0 7.905138e-03 7.739137e-02
21 -1 0 0 101 102  0.000000e+00  0.000000e+00  2.577938e+03  2.577938e+03 0.0 0.0 9.0
21 -1 0 0 103 101  0.000000e+00  0.000000e+00 -1.941415e+03  1.941415e+03 0.0 0.0 9.0
22  1 1 2   0   0  2.087526e+03  3.674747e+02 -4.045162e+02  2.157878e+03 0.0 0.0 9.0
21  1 1 2 103 102 -2.087526e+03 -3.674747e+02  1.041039e+03  2.361476e+03 0.0 0.0 9.0
#pdf 21 21 3.966059e-01 2.986792e-01 5000.0 1.093651e-02 3.661832e-02
</event>
<event>
4 6 1.0 5000.0 7.905138e-03 7.739137e-02
21 -1 0 0 101 102  0.000000e+00  0.000000e+00  3.347530e+03  3.347530e+03 0.0 0.0 9.0
21 -1 0 0 103 101  0.000000e+00  0.000000e+00 -1.432827e+03  1.432827e+03 0.0 0.0 9.0
21  1 1 2 103 102  1.979677e+03 -5.290445e+02  1.800904e+03  2.728052e+03 0.0 0.0 9.0
22  1 1 2   0   0 -1.979677e+03  5.290445e+02  1.137988e+02  2.052306e+03 0.0 0.0 9.0
#pdf 21 21 5.150047e-01 2.204349e-01 5000.0 2.287646e-03 9.673603e-02
</event>
<event>
4 6 1.0 5000.0 7.905138e-03 7.739137e-02
21 -1 0 0 101 102  0.000000e+00  0.000000e+00  1.281541e+03  1.281541e+03 0.0 0.0 9.0
21 -1 0 0 103 101  0.000000e+00  0.000000e+00 -4.809010e+03  4.809010e+03 0.0 0.0 9.0
21  1 1 2 103 102 -4.691056e+02  2.272386e+03 -2.846516e+03  3.672390e+03 0.0 0.0 9.0
22  1 1 2   0   0  4.691056e+02 -2.272386e+03 -6.809532e+02  2.418160e+03 0.0 0.0 9.0
#pdf 21 21 1.971601e-01 7.398476e-01 5000.0 1.305431e-01 4.641613e-05
</event>
<event>
4 6 1.0 5000.0 7.905138e-03 7.739137e-02
21 -1 0 0 101 102  0.000000e+00  0.000000e+00  2.779967e+03  2.779967e+03 0.0 0.0 9.0
21 -1 0 0 103 101  0.000000e+00  0.000000e+00 -2.194851e+03  2.194851e+03 0.0 0.0 9.0
22  1 1 2   0   0 -1.667506e+03  3.178076e+02  2.099545e+03  2.699938e+03 0.0 0.0 9.0
21  1 1 2 103 102  1.667506e+03 -3.178076e+02 -1.514430e+03  2.274879e+03 0.0 0.0 9.0
#pdf 21 21 4.276872e-01 3.376694e-01 5000.0 7.366567e-03 2.270279e-02
</event>
<event>
4 6 1.0 5000.0 7.905138e-03 7.739137e-02
21 -1 0 0 101 102  0.000000e+00  0.000000e+00  2.122500e+03  2.122500e+03 0.0 0.0 9.0
21 -1 0 0 103 101  0.000000e+00  0.000000e+00 -2.731168e+03  2.731168e+03 0.0 0.0 9.0
22  1 1 2   0   0  1.569712e+03  1.825359e+03 -3.357195e+02  2.430770e+03 0.0 0.0 9.0
21  1 1 2 103 102 -1.569712e+03 -1.825359e+03 -2.729484e+02  2.422898e+03 0.0 0.0 9.0
#pdf 21 21 3.265384e-01 4.201796e-01 5000.0 2.602545e-02 8.111688e-03
</event>
<event>
4 6 1.0 5000.0 7.905138e-03 7.739137e-02
21 -1 0 0 101 102  0.000000e+00  0.000000e+00  2.665457e+03  2.665457e+03 0.0 0.0 9.0
21 -1 0 0 103 101  0.000000e+00  0.000000e+00 -2.243733e+03  2.243733e+03 0.0 0.0 9.0
22  1 1 2   0   0  1.373166e+03 -1.635679e+03 -9.850053e+02  2.351864e+03 0.0 0.0 9.0
21  1 1 2 103 102 -1.373166e+03  1.635679e+03  1.406729e+03  2.557326e+03 0.0 0.0 9.0
#pdf 21 21 4.100703e-01 3.451897e-01 5000.0 9.225524e-03 2.070623e-02
</event>
<event>
4 6 1.0 5000.0 7.905138e-03 7.739137e-02
21 -1 0 0 103 101  0.000000e+00  0.000000e+00  2.207594e+03  2.207594e+03 0.0 0.0 9.0
21 -1 0 0 101 102  0.000000e+00  0.000000e+00 -2.886069e+03  2.886069e+03 0.0 0.0 9.0
21  1 1 2 103 102  4.799169e+02 -2.330250e+03 -1.189957e+03  2.660147e+03 0.0 0.0 9.0
22  1 1 2   0   0 -4.799169e+02  2.330250e+03  5.114822e+02  2.433516e+03 0.0 0.0 9.0
#pdf 21 21 3.396299e-01 4.440105e-01 5000.0 2.216316e-02 5.966695e-03
</event>
<event>
4 6 1.0 5000.0 7.905138e-03 7.739137e-02
21 -1 0 0 101 102  0.000000e+00  0.000000e+00  1.259568e+03  1.259568e+03 0.0 0.0 9.0
21 -1 0 0 103 101  0.000000e+00  0.000000e+00 -3.513903e+03  3.513903e+03 0.0 0.0 9.0
22  1 1 2   0   0  1.501500e+03  7.824089e+02 -2.543836e+03  3.055776e+03 0.0 0.0 9.0
21  1 1 2 103 102 -1.501500e+03 -7.824089e+02  2.895008e+02  1.717695e+03 0.0 0.0 9.0
#pdf 21 21 1.937796e-01 5.406005e-01 5000.0 1.364250e-01 1.585954e-03
</event>
<event>
4 6 1.0 5000.0 7.905138e-03 7.739137e-02
21 -1 0 0 103 101  0.000000e+00  0.000000e+00  4.445466e+03  4.445466e+03 0.0 0.0 9.0
21 -1 0 0 101 102  0.000000e+00  0.000000e+00 -1.441876e+03  1.441876e+03 0.0 0.0 9.0
21  1 1 2 103 102  1.856009e+03  1.044078e+03 -9.026842e+01  2.131435e+03 0.0 0.0 9.0
22  1 1 2   0   0 -1.856009e+03 -1.044078e+03  3.093859e+03  3.755906e+03 0.0 0.0 9.0
#pdf 21 21 6.839179e-01 2.218270e-01 5000.0 1.483639e-04 9.502620e-02
</event>
<event>
4 6 1.0 5000.0 7.905138e-03 7.739137e-02
21 -1 0 0 103 101  0.000000e+00  0.000000e+00  2.155257e+03  2.155257e+03 0.0 0.0 9.0
21 -1 0 0 101 102  0.000000e+00  0.000000e+00 -2.679046e+03  2.679046e+03 0.0 0.0 9.0
21  1 1 2 103 102  1.598764e+03 -4.548002e+02 -2.007435e+03  2.606278e+03 0.0 0.0 9.0
22  1 1 2   0   0 -1.598764e+03  4.548002e+02  1.483646e+03  2.228025e+03 0.0 0.0 9.0
#pdf 21 21 3.315780e-01 4.121609e-01 5000.0 2.446859e-02 8.983282e-03
</event>
<event>
4 6 1.0 5000.0 7.905138e-03 7.739137e-02
21 -1 0 0 101 102  0.000000e+00  0.000000e+00  2.926692e+03  2.926692e+03 0.0 0.0 9.0
21 -1 0 0 103 101  0.000000e+00  0.000000e+00 -2.112598e+03  2.112598e+03 0.0 0.0 9.0
21  1 1 2 103 102 -2.959577e+02 -2.388976e+03 -2.242443e+02  2.417661e+03 0.0 0.0 9.0
22  1 1 2   0   0  2.959577e+02  2.388976e+03  1.038338e+03  2.621630e+03 0.0 0.0 9.0
#pdf 21 21 4.502603e-01 3.250151e-01 5000.0 5.498804e-03 2.651474e-02
</event>
<event>
4 6 1.0 5000.0 7.905138e-03 7.739137e-02
21 -1 0 0 103 101  0.000000e+00  0.000000e+00  2.623474e+03  2.623474e+03 0.0 0.0 9.0
21 -1 0 0 101 102  0.000000e+00  0.000000e+00 -2.076698e+03  2.076698e+03 0.0 0.0 9.0
21  1 1 2 103 102  2.091508e+03  1.034457e+03  2.125050e+02  2.343003e+03 0.0 0.0 9.0
22  1 1 2   0   0 -2.091508e+03 -1.034457e+03  3.342713e+02  2.357169e+03 0.0 0.0 9.0
#pdf 21 21 4.036114e-01 3.194920e-01 5000.0 1.001365e-02 2.836896e-02
</event>
<event>
4 6 1.0 5000.0 7.905138e-03 7.739137e-02
21 -1 0 0 103 101  0.000000e+00  0.000000e+00  2.024025e+03  2.024025e+03 0.0 0.0 9.0
21 -1 0 0 101 102  0.000000e+00  0.000000e+00 -3.369343e+03  3.369343e+03 0.0 0.0 9.0
21  1 1 2 103 102  2.458069e+03 -8.802457e+02 -7.263186e+02  2.710069e+03 0.0 0.0 9.0
22  1 1 2   0   0 -2.458069e+03  8.802457e+02 -6.189996e+02  2.683299e+03 0.0 0.0 9.0
#pdf 21 21 3.113885e-01 5.183605e-01 5000.0 3.135277e-02 2.181689e-03
</event>
<event>
4 6 1.0 5000.0 7.905138e-03 7.739137e-02
21 -1 0 0 103 101  0.000000e+00  0.000000e+00  2.887576e+03  2.887576e+03 0.0 0.0 9.0
21 -1 0 0 101 102  0.000000e+00  0.000000e+00 -1.546240e+03  1.546240e+03 0.0 0.0 9.0
21  1 1 2 103 102 -1.901464e+03 -9.215204e+02  6.821771e+02  2.220389e+03 0.0 0.0 9.0
22  1 1 2   0   0  1.901464e+03  9.215204e+02  6.591593e+02  2.213426e+03 0.0 0.0 9.0
#pdf 21 21 4.442425e-01 2.378830e-01 5000.0 5.948175e-03 7.764173e-02
</event>
<event>
4 6 1.0 5000.0 7.905138e-03 7.739137e-02
21 -1 0 0 101 102  0.000000e+00  0.000000e+00  1.665200e+03  1.665200e+03 0.0 0.0 9.0
21 -1 0 0 103 101  0.000000e+00  0.000000e+00 -3.775926e+03  3.775926e+03 0.0 0.0 9.0
22  1 1 2   0   0 -3.228321e+02 -6.797933e+02 -3.650513e+03  3.727275e+03 0.0 0.0 9.0
21  1 1 2 103 102  3.228321e+02  6.797933e+02  1.539787e+03  1.713851e+03 0.0 0.0 9.0
#pdf 21 21 2.561846e-01 5.809117e-01 5000.0 6.179415e-02 8.665171e-04
</event>
<event>
4 6 1.0 5000.0 7.905138e-03 7.739137e-02
21 -1 0 0 101 102  0.000000e+00  0.000000e+00  2.678772e+03  2.678772e+03 0.0 0.0 9.0
21 -1 0 0 103 101  0.000000e+00  0.000000e+00 -1.866170e+03  1.866170e+03 0.0 0.0 9.0
21  1 1 2 103 102 -4.591541e+02  2.069130e+03 -3.173462e+02  2.143088e+03 0.0 0.0 9.0
22  1 1 2   0   0  4.591541e+02 -2.069130e+03  1.129947e+03  2.401854e+03 0.0 0.0 9.0
#pdf 21 21 4.121187e-01 2.871031e-01 5000.0 8.988107e-03 4.219305e-02
</event>
<event>
4 6 1.0 5000.0 7.905138e-03 7.739137e-02
21 -1 0 0 103 101  0.000000e+00  0.000000e+00  2.435844e+03  2.435844e+03 0.0 0.0 9.0
21 -1 0 0 101 102  0.000000e+00  0.000000e+00 -2.500618e+03  2.500618e+03 0.0 0.0 9.0
21  1 1 2 103 102 -1.535165e+03  5.129692e+02  1.830901e+03  2.443781e+03 0.0 0.0 9.0
22  1 1 2   0   0  1.535165e+03 -5.129692e+02 -1.895675e+03  2.492680e+03 0.0 0.0 9.0
#pdf 21 21 3.747452e-01 3.847104e-01 5000.0 1.437892e-02 1.270303e-02
</event>
<event>
4 6 1.0 5000.0 7.905138e-03 7.739137e-02
21 -1 0 0 103 101  0.000000e+00  0.000000e+00  2.847947e+03  2.847947e+03 0.0 0.0 9.0
21 -1 0 0 101 102  0.000000e+00  0.000000e+00 -2.126347e+03  2.126347e+03 0.0 0.0 9.0
22  1 1 2   0   0 -2.273755e+03  3.968306e+01 -5.895639e+02  2.349281e+03 0.0 0.0 9.0
21  1 1 2 103 102  2.273755e+03 -3.968306e+01  1.311164e+03  2.625012e+03 0.0 0.0 9.0
#pdf 21 21 4.381456e-01 3.271303e-01 5000.0 6.443348e-03 2.583776e-02
</event>
<event>
4 6 1.0 5000.0 7.905138e-03 7.739137e-02
21 -1 0 0 101 102  0.000000e+00  0.000000e+00  1.587700e+03  1.587700e+03 0.0 0.0 9.0
21 -1 0 0 103 101  0.000000e+00  0.000000e+00 -3.025794e+03  3.025794e+03 0.0 0.0 9.0
21  1 1 2 103 102 -1.475010e+03  1.174328e+03  4.573069e+02  1.940060e+03 0.0 0.0 9.0
22  1 1 2   0   0  1.475010e+03 -1.174328e+03 -1.895401e+03  2.673434e+03 0.0 0.0 9.0
#pdf 21 21 2.442615e-01 4.655067e-01 5000.0 7.163935e-02 4.495239e-03
</event>
<event>
4 6 1.0 5000.0 7.905138e-03 7.739137e-02
21 -1 0 0 103 101  0.000000e+00  0.000000e+00  2.693076e+03  2.693076e+03 0.0 0.0 9.0
21 -1 0 0 101 102  0.000000e+00  0.000000e+00 -1.867244e+03  1.867244e+03 0.0 0.0 9.0
21  1 1 2 103 102 -1.337715e+03  4.772115e+02 -1.351602e+03  1.960622e+03 0.0 0.0 9.0
22  1 1 2   0   0  1.337715e+03 -4.772115e+02  2.177434e+03  2.599698e+03 0.0 0.0 9.0
#pdf 21 21 4.143194e-01 2.872684e-01 5000.0 8.740011e-03 4.210868e-02
</event>
<event>
4 6 1.0 5000.0 7.905138e-03 7.739137e-02
21 -1 0 0 103 101  0.000000e+00  0.000000e+00  3.333912e+03  3.333912e+03 0.0 0.0 9.0
21 -1 0 0 101 102  0.000000e+00  0.000000e+00 -2.040241e+03  2.040241e+03 0.0 0.0 9.0
21  1 1 2 103 102 -9.319203e+02 -6.445971e+02 -1.773375e+03  2.104481e+03 0.0 0.0 9.0
22  1 1 2   0   0  9.319203e+02  6.445971e+02  3.067046e+03  3.269672e+03 0.0 0.0 9.0
#pdf 21 21 5.129095e-01 3.138832e-01 5000.0 2.355858e-03 3.039877e-02
</event>
<event>
4 6 1.0 5000.0 7.905138e-03 7.739137e-02
21 -1 0 0 103 101  0.000000e+00  0.000000e+00  1.919962e+03  1.919962e+03 0.0 0.0 9.0
21 -1 0 0 101 102  0.000000e+00  0.000000e+00 -2.942314e+03  2.942314e+03 0.0 0.0 9.0
22  1 1 2   0   0  9.462792e+02  1.812552e+03  7.282831e+02  2.170527e+03 0.0 0.0 9.0
21  1 1 2 103 102 -9.462792e+02 -1.812552e+03 -1.750635e+03  2.691749e+03 0.0 0.0 9.0
#pdf 21 21 2.953788e-01 4.526636e-01 5000.0 3.815481e-02 5.329673e-03
</event>
<event>
4 6 1.0 5000.0 7.905138e-03 7.739137e-02
21 -1 0 0 103 101  0.000000e+00  0.000000e+00  2.485493e+03  2.485493e+03 0.0 0.0 9.0
21 -1 0 0 101 102  0.000000e+00  0.000000e+00 -2.448988e+03  2.448988e+03 0.0 0.0 9.0
21  1 1 2 103 102  6.206612e+02 -2.383465e+03 -1.260288e+02  2.466173e+03 0.0 0.0 9.0
22  1 1 2   0   0 -6.206612e+02  2.383465e+03  1.625333e+02  2.468308e+03 0.0 0.0 9.0
#pdf 21 21 3.823835e-01 3.767675e-01 5000.0 1.308005e-02 1.402669e-02
</event>
<event>
4 6 1.0 5000.0 7.905138e-03 7.739137e-02
21 -1 0 0 103 101  0.000000e+00  0.000000e+00  1.525978e+03  1.525978e+03 0.0 0.0 9.0
21 -1 0 0 101 102  0.000000e+00  0.000000e+00 -4.103539e+03  4.103539e+03 0.0 0.0 9.0
22  1 1 2   0   0 -6.205264e+02  1.959645e+03 -2.894041e+03  3.549752e+03 0.0 0.0 9.0
21  1 1 2 103 102  6.205264e+02 -1.959645e+03  3.164802e+02  2.079765e+03 0.0 0.0 9.0
#pdf 21 21 2.347658e-01 6.313137e-01 5000.0 8.070508e-02 3.829587e-04
</event>
<event>
4 6 1.0 5000.0 7.905138e-03 7.739137e-02
21 -1 0 0 103 101  0.000000e+00  0.000000e+00  2.749305e+03  2.749305e+03 0.0 0.0 9.0
21 -1 0 0 101 102  0.000000e+00  0.000000e+00 -2.286596e+03  2.286596e+03 0.0 0.0 9.0
22  1 1 2   0   0  1.522815e+03 -1.968565e+03  5.365156e+02  2.545989e+03 0.0 0.0 9.0
21  1 1 2 103 102 -1.522815e+03  1.968565e+03 -7.380727e+01  2.489912e+03 0.0 0.0 9.0
#pdf 21 21 4.229699e-01 3.517840e-01 5000.0 7.827499e-03 1.909417e-02
</event>
<event>
4 6 1.0 5000.0 7.905138e-03 7.739137e-02
21 -1 0 0 103 101  0.000000e+00  0.000000e+00  3.036907e+03  3.036907e+03 0.0 0.0 9.0
21 -1 0 0 101 102  0.000000e+00  0.000000e+00 -1.680604e+03  1.680604e+03 0.0 0.0 9.0
21  1 1 2 103 102 -6.972324e+02 -1.414410e+03 -1.010923e+03  1.873140e+03 0.0 0.0 9.0
22  1 1 2   0   0  6.972324e+02  1.414410e+03  2.367226e+03  2.844371e+03 0.0 0.0 9.0
#pdf 21 21 4.672165e-01 2.585545e-01 5000.0 4.394502e-03 5.998475e-02
</event>
<event>
4 6 1.0 5000.0 7.905138e-03 7.739137e-02
21 -1 0 0 103 101  0.000000e+00  0.000000e+00  1.697624e+03  1.697624e+03 0.0 0.0 9.0
21 -1 0 0 101 102  0.000000e+00  0.000000e+00 -2.816087e+03  2.816087e+03 0.0 0.0 9.0
21  1 1 2 103 102 -1.218587e+03 -1.814954e+03 -5.173936e+02  2.246488e+03 0.0 0.0 9.0
22  1 1 2   0   0  1.218587e+03  1.814954e+03 -6.010694e+02  2.267222e+03 0.0 0.0 9.0
#pdf 21 21 2.611729e-01 4.332441e-01 5000.0 5.805015e-02 6.860722e-03
</event>
<event>
4 6 1.0 5000.0 7.905138e-03 7.739137e-02
21 -1 0 0 103 101  0.000000e+00  0.000000e+00  2.973381e+03  2.973381e+03 0.0 0.0 9.0
21 -1 0 0 101 102  0.000000e+00  0.000000e+00 -1.926611e+03  1.926611e+03 0.0 0.0 9.0
21  1 1 2 103 102 -7.768665e+02  6.780972e+02 -1.687564e+03  1.977678e+03 0.0 0.0 9.0
22  1 1 2   0   0  7.768665e+02 -6.780972e+02  2.734335e+03  2.922315e+03 0.0 0.0 9.0
#pdf 21 21 4.574433e-01 2.964017e-01 5000.0 5.003119e-03 3.767566e-02
</event>
<event>
4 6 1.0 5000.0 7.905138e-03 7.739137e-02
21 -1 0 0 103 101  0.000000e+00  0.000000e+00  1.867971e+03  1.867971e+03 0.0 0.0 9.0
21 -1 0 0 101 102  0.000000e+00  0.000000e+00 -2.724575e+03  2.724575e+03 0.0 0.0 9.0
21  1 1 2 103 102  7.486343e+02 -2.117201e+03 -2.089647e+02  2.255362e+03 0.0 0.0 9.0
22  1 1 2   0   0 -7.486343e+02  2.117201e+03 -6.476392e+02  2.337184e+03 0.0 0.0 9.0
#pdf 21 21 2.873802e-01 4.191654e-01 5000.0 4.205168e-02 8.217273e-03
</event>
<event>
4 6 1.0 5000.0 7.905138e-03 7.739137e-02
21 -1 0 0 103 101  0.000000e+00  0.000000e+00  1.369942e+03  1.369942e+03 0.0 0.0 9.0
21 -1 0 0 101 102  0.000000e+00  0.000000e+00 -4.184100e+03  4.184100e+03 0.0 0.0 9.0
22  1 1 2   0   0 -1.002972e+03  1.373193e+02  1.109477e+03  1.501915e+03 0.0 0.0 9.0
21  1 1 2 103 102  1.002972e+03 -1.373193e+02 -3.923636e+03  4.052126e+03 0.0 0.0 9.0
#pdf 21 21 2.107603e-01 6.437077e-01 5000.0 1.094578e-01 3.094067e-04
</event>
<event>
4 6 1.0 5000.0 7.905138e-03 7.739137e-02
21 -1 0 0 101 102  0.000000e+00  0.000000e+00  2.379658e+03  2.379658e+03 0.0 0.0 9.0
21 -1 0 0 103 101  0.000000e+00  0.000000e+00 -1.916818e+03  1.916818e+03 0.0 0.0 9.0
22  1 1 2   0   0  1.031600e+03  1.845483e+03 -7.262126e+01  2.115485e+03 0.0 0.0 9.0
21  1 1 2 103 102 -1.031600e+03 -1.845483e+03  5.354612e+02  2.180991e+03 0.0 0.0 9.0
#pdf 21 21 3.661013e-01 2.948951e-01 5000.0 1.599984e-02 3.838247e-02
</event>
<event>
4 6 1.0 5000.0 7.905138e-03 7.739137e-02
21 -1 0 0 101 102  0.000000e+00  0.000000e+00  1.957282e+03  1.957282e+03 0.0 0.0 9.0
21 -1 0 0 103 101  0.000000e+00  0.000000e+00 -3.293905e+03  3.293905e+03 0.0 0.0 9.0
22  1 1 2   0   0 -4.467846e+01 -2.533403e+03 -8.381399e+02  2.668821e+03 0.0 0.0 9.0
21  1 1 2 103 102  4.467846e+01  2.533403e+03 -4.984828e+02  2.582366e+03 0.0 0.0 9.0
#pdf 21 21 3.011204e-01 5.067546e-01 5000.0 3.552816e-02 2.566556e-03
</event>
<event>
4 6 1.0 5000.0 7.905138e-03 7.739137e-02
21 -1 0 0 101 102  0.000000e+00  0.000000e+00  4.015719e+03  4.015719e+03 0.0 0.0 9.0
21 -1 0 0 103 101  0.000000e+00  0.000000e+00 -1.216834e+03  1.216834e+03 0.0 0.0 9.0
22  1 1 2   0   0 -4.007551e+02  1.848570e+03  2.753377e+03  3.340494e+03 0.0 0.0 9.0
21  1 1 2 103 102  4.007551e+02 -1.848570e+03  4.550823e+01  1.892059e+03 0.0 0.0 9.0
#pdf 21 21 6.178030e-01 1.872052e-01 5000.0 4.805501e-04 1.489905e-01
</event>
<event>
4 6 1.0 5000.0 7.905138e-03 7.739137e-02
21 -1 0 0 101 102  0.000000e+00  0.000000e+00  3.944797e+03  3.944797e+03 0.0 0.0 9.0
21 -1 0 0 103 101  0.000000e+00  0.000000e+00 -1.354450e+03  1.354450e+03 0.0 0.0 9.0
22  1 1 2   0   0  1.667473e+03  1.330569e+03  2.315394e+03  3.148322e+03 0.0 0.0 9.0
21  1 1 2 103 102 -1.667473e+03 -1.330569e+03  2.749529e+02  2.150925e+03 0.0 0.0 9.0
#pdf 21 21 6.068919e-01 2.083769e-01 5000.0 5.746524e-04 1.128120e-01
</event>
<event>
4 6 1.0 5000.0 7.905138e-03 7.739137e-02
21 -1 0 0 101 102  0.000000e+00  0.000000e+00  3.049866e+03  3.049866e+03 0.0 0.0 9.0
21 -1 0 0 103 101  0.000000e+00  0.000000e+00 -2.010928e+03  2.010928e+03 0.0 0.0 9.0
21  1 1 2 103 102 -2.444236e+00  2.148264e+03  1.778360e+03  2.788836e+03 0.0 0.0 9.0
22  1 1 2   0   0  2.444236e+00 -2.148264e+03 -7.394221e+02  2.271957e+03 0.0 0.0 9.0
#pdf 21 21 4.692101e-01 3.093735e-01 5000.0 4.279581e-03 3.214341e-02
</event>
<event>
4 6 1.0 5000.0 7.905138e-03 7.739137e-02
21 -1 0 0 103 101  0.000000e+00  0.000000e+00  2.654762e+03  2.654762e+03 0.0 0.0 9.0
21 -1 0 0 101 102  0.000000e+00  0.000000e+00 -2.323126e+03  2.323126e+03 0.0 0.0 9.0
21  1 1 2 103 102  1.604783e+03  1.248238e+03  1.595150e+03  2.584169e+03 0.0 0.0 9.0
22  1 1 2   0   0 -1.604783e+03 -1.248238e+03 -1.263514e+03  2.393720e+03 0.0 0.0 9.0
#pdf 21 21 4.084249e-01 3.574041e-01 5000.0 9.420967e-03 1.780659e-02
</event>
<event>
4 6 1.0 5000.0 7.905138e-03 7.739137e-02
21 -1 0 0 103 101  0.000000e+00  0.000000e+00  2.666669e+03  2.666669e+03 0.0 0.0 9.0
21 -1 0 0 101 102  0.000000e+00  0.000000e+00 -2.228989e+03  2.228989e+03 0.0 0.0 9.0
21  1 1 2 103 102 -2.357054e+03 -4.818720e+02  6.154893e+02  2.483290e+03 0.0 0.0 9.0
22  1 1 2   0   0  2.357054e+03  4.818720e+02 -1.778097e+02  2.412368e+03 0.0 0.0 9.0
#pdf 21 21 4.102567e-01 3.429214e-01 5000.0 9.203647e-03 2.128840e-02
</event>
<event>
4 6 1.0 5000.0 7.905138e-03 7.739137e-02
21 -1 0 0 101 102  0.000000e+00  0.000000e+00  1.851022e+03  1.851022e+03 0.0 0.0 9.0
21 -1 0 0 103 101  0.000000e+00  0.000000e+00 -3.293173e+03  3.293173e+03 0.0 0.0 9.0
22  1 1 2   0   0 -1.838228e+03 -6.591603e+02  8.527165e+02  2.130892e+03 0.0 0.0 9.0
21  1 1 2 103 102  1.838228e+03  6.591603e+02 -2.294868e+03  3.013303e+03 0.0 0.0 9.0
#pdf 21 21 2.847726e-01 5.066421e-01 5000.0 4.340436e-02 2.570565e-03
</event>
<event>
4 6 1.0 5000.0 7.905138e-03 7.739137e-02
21 -1 0 0 103 101  0.000000e+00  0.000000e+00  3.396063e+03  3.396063e+03 0.0 0.0 9.0
21 -1 0 0 101 102  0.000000e+00  0.000000e+00 -1.731959e+03  1.731959e+03 0.0 0.0 9.0
22  1 1 2   0   0  1.182898e+03 -9.600762e+02 -1.162934e+03  1.916614e+03 0.0 0.0 9.0
21  1 1 2 103 102 -1.182898e+03  9.600762e+02  2.827038e+03  3.211408e+03 0.0 0.0 9.0
#pdf 21 21 5.224713e-01 2.664552e-01 5000.0 2.058492e-03 5.436898e-02
</event>
<event>
4 6 1.0 5000.0 7.905138e-03 7.739137e-02
21 -1 0 0 103 101  0.000000e+00  0.000000e+00  2.040549e+03  2.040549e+03 0.0 0.0 9.0
21 -1 0 0 101 102  0.000000e+00  0.000000e+00 -3.232107e+03  3.232107e+03 0.0 0.0 9.0
22  1 1 2   0   0  1.534897e+03  1.604404e+03  7.289379e+02  2.336958e+03 0.0 0.0 9.0
21  1 1 2 103 102 -1.534897e+03 -1.604404e+03 -1.920496e+03  2.935699e+03 0.0 0.0 9.0
#pdf 21 21 3.139306e-01 4.972473e-01 5000.0 3.038091e-02 2.927653e-03
</event>
<event>
4 6 1.0 5000.0 7.905138e-03 7.739137e-02
21 -1 0 0 103 101  0.000000e+00  0.000000e+00  2.530277e+03  2.530277e+03 0.0 0.0 9.0
21 -1 0 0 101 102  0.000000e+00  0.000000e+00 -2.386536e+03  2.386536e+03 0.0 0.0 9.0
21  1 1 2 103 102  4.069830e+02  1.073259e+03  2.245603e+03  2.521954e+03 0.0 0.0 9.0
22  1 1 2   0   0 -4.069830e+02 -1.073259e+03 -2.101863e+03  2.394858e+03 0.0 0.0 9.0
#pdf 21 21 3.892733e-01 3.671594e-01 5000.0 1.199283e-02 1.578881e-02
</event>
<event>
4 6 1.0 5000.0 7.905138e-03 7.739137e-02
21 -1 0 0 103 101  0.000000e+00  0.000000e+00  2.602113e+03  2.602113e+03 0.0 0.0 9.0
21 -1 0 0 101 102  0.000000e+00  0.000000e+00 -2.294901e+03  2.294901e+03 0.0 0.0 9.0
21  1 1 2 103 102  1.410560e+02  1.951762e+03 -1.312949e+03  2.356503e+03 0.0 0.0 9.0
22  1 1 2   0   0 -1.410560e+02 -1.951762e+03  1.620162e+03  2.540511e+03 0.0 0.0 9.0
#pdf 21 21 4.003251e-01 3.530616e-01 5000.0 1.043701e-02 1.879361e-02
</event>
<event>
4 6 1.0 5000.0 7.905138e-03 7.739137e-02
21 -1 0 0 103 101  0.000000e+00  0.000000e+00  2.823348e+03  2.823348e+03 0.0 0.0 9.0
21 -1 0 0 101 102  0.000000e+00  0.000000e+00 -2.238230e+03  2.238230e+03 0.0 0.0 9.0
21  1 1 2 103 102  3.591572e+02 -1.608064e+03 -1.618791e+03  2.309837e+03 0.0 0.0 9.0
22  1 1 2   0   0 -3.591572e+02  1.608064e+03  2.203909e+03  2.751741e+03 0.0 0.0 9.0
#pdf 21 21 4.343612e-01 3.443431e-01 5000.0 6.763580e-03 2.092168e-02
</event>
<event>
4 6 1.0 5000.0 7.905138e-03 7.739137e-02
21 -1 0 0 103 101  0.000000e+00  0.000000e+00  3.345639e+03  3.345639e+03 0.0 0.0 9.0
21 -1 0 0 101 102  0.000000e+00  0.000000e+00 -2.004584e+03  2.004584e+03 0.0 0.0 9.0
22  1 1 2   0   0 -1.081612e+03 -2.082898e+02 -1.750550e+03  2.068259e+03 0.0 0.0 9.0
21  1 1 2 103 102  1.081612e+03  2.082898e+02  3.091605e+03  3.281965e+03 0.0 0.0 9.0
#pdf 21 21 5.147137e-01 3.083975e-01 5000.0 2.297019e-03 3.253225e-02
</event>
<event>
4 6 1.0 5000.0 7.905138e-03 7.739137e-02
21 -1 0 0 101 102  0.000000e+00  0.000000e+00  3.142888e+03  3.142888e+03 0.0 0.0 9.0
21 -1 0 0 103 101  0.000000e+00  0.000000e+00 -1.715878e+03  1.715878e+03 0.0 0.0 9.0
22  1 1 2   0   0  1.316685e+03  1.570028e+03 -4.296899e+02  2.093629e+03 0.0 0.0 9.0
21  1 1 2 103 102 -1.316685e+03 -1.570028e+03  1.856700e+03  2.765137e+03 0.0 0.0 9.0
#pdf 21 21 4.835212e-01 2.639812e-01 5000.0 3.529565e-03 5.605762e-02
</event>
<event>
4 6 1.0 5000.0 7.905138e-03 7.739137e-02
21 -1 0 0 101 102  0.000000e+00  0.000000e+00  2.521708e+03  2.521708e+03 0.0 0.0 9.0
21 -1 0 0 103 101  0.000000e+00  0.000000e+00 -2.444162e+03  2.444162e+03 0.0 0.0 9.0
22  1 1 2   0   0 -5.994865e+02  2.163761e+03 -1.020703e+03  2.466390e+03 0.0 0.0 9.0
21  1 1 2 103 102  5.994865e+02 -2.163761e+03  1.098249e+03  2.499479e+03 0.0 0.0 9.0
#pdf 21 21 3.879551e-01 3.760249e-01 5000.0 1.219387e-02 1.415537e-02
</event>
<event>
4 6 1.0 5000.0 7.905138e-03 7.739137e-02
21 -1 0 0 101 102  0.000000e+00  0.000000e+00  1.796859e+03  1.796859e+03 0.0 0.0 9.0
21 -1 0 0 103 101  0.000000e+00  0.000000e+00 -3.530018e+03  3.530018e+03 0.0 0.0 9.0
21  1 1 2 103 102  1.489257e+03  1.949529e+03 -1.468909e+03  2.859414e+03 0.0 0.0 9.0
22  1 1 2   0   0 -1.489257e+03 -1.949529e+03 -2.642494e+02  2.467464e+03 0.0 0.0 9.0
#pdf 21 21 2.764399e-01 5.430797e-01 5000.0 4.808545e-02 1.530148e-03
</event>
<event>
4 6 1.0 5000.0 7.905138e-03 7.739137e-02
21 -1 0 0 101 102  0.000000e+00  0.000000e+00  2.496621e+03  2.496621e+03 0.0 0.0 9.0
21 -1 0 0 103 101  0.000000e+00  0.000000e+00 -2.595179e+03  2.595179e+03 0.0 0.0 9.0
21  1 1 2 103 102 -2.532432e+03  5.290240e+01  2.020956e+02  2.541034e+03 0.0 0.0 9.0
22  1 1 2   0   0  2.532432e+03 -5.290240e+01 -3.006535e+02  2.550765e+03 0.0 0.0 9.0
#pdf 21 21 3.840955e-01 3.992582e-01 5000.0 1.280174e-02 1.057800e-02
</event>
<event>
4 6 1.0 5000.0 7.905138e-03 7.739137e-02
21 -1 0 0 103 101  0.000000e+00  0.000000e+00  3.355405e+03  3.355405e+03 0.0 0.0 9.0
21 -1 0 0 101 102  0.000000e+00  0.000000e+00 -1.911358e+03  1.911358e+03 0.0 0.0 9.0
21  1 1 2 103 102  2.328367e+03 -9.887460e+02  8.471174e+02  2.667680e+03 0.0 0.0 9.0
22  1 1 2   0   0 -2.328367e+03  9.887460e+02  5.969291e+02  2.599083e+03 0.0 0.0 9.0
#pdf 21 21 5.162161e-01 2.940551e-01 5000.0 2.248936e-03 3.877977e-02
</event>
<event>
4 6 1.0 5000.0 7.905138e-03 7.739137e-02
21 -1 0 0 103 101  0.000000e+00  0.000000e+00  2.947979e+03  2.947979e+03 0.0 0.0 9.0
21 -1 0 0 101 102  0.000000e+00  0.000000e+00 -2.183446e+03  2.183446e+03 0.0 0.0 9.0
22  1 1 2   0   0  2.190336e+03 -1.274724e+03  2.614978e+02  2.547719e+03 0.0 0.0 9.0
21  1 1 2 103 102 -2.190336e+03  1.274724e+03  5.030352e+02  2.583706e+03 0.0 0.0 9.0
#pdf 21 21 4.535353e-01 3.359148e-01 5000.0 5.269042e-03 2.319859e-02
</event>
<event>
4 6 1.0 5000.0 7.905138e-03 7.739137e-02
21 -1 0 0 101 102  0.000000e+00  0.000000e+00  2.227096e+03  2.227096e+03 0.0 0.0 9.0
21 -1 0 0 103 101  0.000000e+00  0.000000e+00 -2.608797e+03  2.608797e+03 0.0 0.0 9.0
22  1 1 2   0   0  1.015049e+03 -1.154781e+03  1.671353e+03  2.270961e+03 0.0 0.0 9.0
21  1 1 2 103 102 -1.015049e+03  1.154781e+03 -2.053054e+03  2.564932e+03 0.0 0.0 9.0
#pdf 21 21 3.426302e-01 4.013534e-01 5000.0 2.136431e-02 1.030281e-02
</event>
<event>
4 6 1.0 5000.0 7.905138e-03 7.739137e-02
21 -1 0 0 103 101  0.000000e+00  0.000000e+00  1.995406e+03  1.995406e+03 0.0 0.0 9.0
21 -1 0 0 101 102  0.000000e+00  0.000000e+00 -3.188893e+03  3.188893e+03 0.0 0.0 9.0
21  1 1 2 103 102  1.623328e+03 -1.211352e+03  9.482736e+02  2.236468e+03 0.0 0.0 9.0
22  1 1 2   0   0 -1.623328e+03  1.211352e+03 -2.141761e+03  2.947831e+03 0.0 0.0 9.0
#pdf 21 21 3.069855e-01 4.905989e-01 5000.0 3.310102e-02 3.206223e-03
</event>
<event>
4 6 1.0 5000.0 7.905138e-03 7.739137e-02
21 -1 0 0 103 101  0.000000e+00  0.000000e+00  1.669630e+03  1.669630e+03 0.0 0.0 9.0
21 -1 0 0 101 102  0.000000e+00  0.000000e+00 -3.001276e+03  3.001276e+03 0.0 0.0 9.0
22  1 1 2   0   0  3.147081e+02 -2.074775e+03  1.472054e+02  2.103664e+03 0.0 0.0 9.0
21  1 1 2 103 102 -3.147081e+02  2.074775e+03 -1.478852e+03  2.567243e+03 0.0 0.0 9.0
#pdf 21 21 2.568661e-01 4.617348e-01 5000.0 6.126848e-02 4.725193e-03
</event>
<event>
4 6 1.0 5000.0 7.905138e-03 7.739137e-02
21 -1 0 0 101 102  0.000000e+00  0.000000e+00  1.219685e+03  1.219685e+03 0.0 0.0 9.0
21 -1 0 0 103 101  0.000000e+00  0.000000e+00 -4.152052e+03  4.152052e+03 0.0 0.0 9.0
22  1 1 2   0   0  1.733019e+03 -4.120729e+02 -3.107451e+03  3.581817e+03 0.0 0.0 9.0
21  1 1 2 103 102 -1.733019e+03  4.120729e+02  1.750844e+02  1.789920e+03 0.0 0.0 9.0
#pdf 21 21 1.876439e-01 6.387772e-01 5000.0 1.481138e-01 3.370914e-04
</event>
<event>
4 6 1.0 5000.0 7.905138e-03 7.739137e-02
21 -1 0 0 103 101  0.000000e+00  0.000000e+00  2.120197e+03  2.120197e+03 0.0 0.0 9.0
21 -1 0 0 101 102  0.000000e+00  0.000000e+00 -2.217796e+03  2.217796e+03 0.0 0.0 9.0
22  1 1 2   0   0 -1.084283e+03  1.564131e+03  9.906886e+02  2.145609e+03 0.0 0.0 9.0
21  1 1 2 103 102  1.084283e+03 -1.564131e+03 -1.088288e+03  2.192383e+03 0.0 0.0 9.0
#pdf 21 21 3.261841e-01 3.411993e-01 5000.0 2.613844e-02 2.174139e-02
</event>
<event>
4 6 1.0 5000.0 7.905138e-03 7.739137e-02
21 -1 0 0 101 102  0.000000e+00  0.000000e+00  2.625338e+03  2.625338e+03 0.0 0.0 9.0
21 -1 0 0 103 101  0.000000e+00  0.000000e+00 -1.926210e+03  1.926210e+03 0.0 0.0 9.0
22  1 1 2   0   0  2.582980e+02  2.168139e+03  8.939910e+02  2.359399e+03 0.0 0.0 9.0
21  1 1 2 103 102 -2.582980e+02 -2.168139e+03 -1.948639e+02  2.192149e+03 0.0 0.0 9.0
#pdf 21 21 4.038981e-01 2.963401e-01 5000.0 9.977466e-03 3.770442e-02
</event>
<event>
4 6 1.0 5000.0 7.905138e-03 7.739137e-02
21 -1 0 0 103 101  0.000000e+00  0.000000e+00  2.231163e+03  2.231163e+03 0.0 0.0 9.0
21 -1 0 0 101 102  0.000000e+00  0.000000e+00 -2.891822e+03  2.891822e+03 0.0 0.0 9.0
21  1 1 2 103 102  2.263016e+03 -6.881468e+02 -1.264052e+03  2.681905e+03 0.0 0.0 9.0
22  1 1 2   0   0 -2.263016e+03  6.881468e+02  6.033939e+02  2.441080e+03 0.0 0.0 9.0
#pdf 21 21 3.432559e-01 4.448957e-01 5000.0 2.120155e-02 5.896101e-03
</event>
<event>
4 6 1.0 5000.0 7.905138e-03 7.739137e-02
21 -1 0 0 103 101  0.000000e+00  0.000000e+00  2.858661e+03  2.858661e+03 0.0 0.0 9.0
21 -1 0 0 101 102  0.000000e+00  0.000000e+00 -2.388848e+03  2.388848e+03 0.0 0.0 9.0
22  1 1 2   0   0  3.094292e+02  1.895093e+03 -1.544748e+03  2.464421e+03 0.0 0.0 9.0
21  1 1 2 103 102 -3.094292e+02 -1.895093e+03  2.014561e+03  2.783088e+03 0.0 0.0 9.0
#pdf 21 21 4.397940e-01 3.675151e-01 5000.0 6.307414e-03 1.571807e-02
</event>
<event>
4 6 1.0 5000.0 7.905138e-03 7.739137e-02
21 -1 0 0 101 102  0.000000e+00  0.000000e+00  1.646569e+03  1.646569e+03 0.0 0.0 9.0
21 -1 0 0 103 101  0.000000e+00  0.000000e+00 -3.755467e+03  3.755467e+03 0.0 0.0 9.0
21  1 1 2 103 102  1.045734e+03  2.231329e+03 -1.416726e+03  2.842447e+03 0.0 0.0 9.0
22  1 1 2   0   0 -1.045734e+03 -2.231329e+03 -6.921717e+02  2.559589e+03 0.0 0.0 9.0
#pdf 21 21 2.533183e-01 5.777641e-01 5000.0 6.404877e-02 9.095531e-04
</event>
<event>
4 6 1.0 5000.0 7.905138e-03 7.739137e-02
21 -1 0 0 101 102  0.000000e+00  0.000000e+00  1.658756e+03  1.658756e+03 0.0 0.0 9.0
21 -1 0 0 103 101  0.000000e+00  0.000000e+00 -3.892271e+03  3.892271e+03 0.0 0.0 9.0
21  1 1 2 103 102  1.983486e+03 -1.498658e+03 -1.690755e+03  3.006467e+03 0.0 0.0 9.0
22  1 1 2   0   0 -1.983486e+03  1.498658e+03 -5.427600e+02  2.544560e+03 0.0 0.0 9.0
#pdf 21 21 2.551933e-01 5.988109e-01 5000.0 6.256619e-02 6.541179e-04
</event>
<event>
4 6 1.0 5000.0 7.905138e-03 7.739137e-02
21 -1 0 0 103 101  0.000000e+00  0.000000e+00  2.576711e+03  2.576711e+03 0.0 0.0 9.0
21 -1 0 0 101 102  0.000000e+00  0.000000e+00 -2.191371e+03  2.191371e+03 0.0 0.0 9.0
22  1 1 2   0   0 -2.279226e+03 -6.641730e+02  2.956239e+02  2.392361e+03 0.0 0.0 9.0
21  1 1 2 103 102  2.279226e+03  6.641730e+02  8.971631e+01  2.375721e+03 0.0 0.0 9.0
#pdf 21 21 3.964171e-01 3.371340e-01 5000.0 1.096248e-02 2.285276e-02
</event>
<event>
4 6 1.0 5000.0 7.905138e-03 7.739137e-02
21 -1 0 0 103 101  0.000000e+00  0.000000e+00  4.088631e+03  4.088631e+03 0.0 0.0 9.0
21 -1 0 0 101 102  0.000000e+00  0.000000e+00 -1.342325e+03  1.342325e+03 0.0 0.0 9.0
22  1 1 2   0   0 -1.319842e+03  4.307735e+02  3.560398e+03  3.821516e+03 0.0 0.0 9.0
21  1 1 2 103 102  1.319842e+03 -4.307735e+02 -8.140927e+02  1.609440e+03 0.0 0.0 9.0
#pdf 21 21 6.290201e-01 2.065115e-01 5000.0 3.981852e-04 1.155443e-01
</event>
<event>
4 6 1.0 5000.0 7.905138e-03 7.739137e-02
21 -1 0 0 103 101  0.000000e+00  0.000000e+00  2.586555e+03  2.586555e+03 0.0 0.0 9.0
21 -1 0 0 101 102  0.000000e+00  0.000000e+00 -2.263929e+03  2.263929e+03 0.0 0.0 9.0
22  1 1 2   0   0  2.311161e+03  3.021627e+02 -4.905219e+02  2.381886e+03 0.0 0.0 9.0
21  1 1 2 103 102 -2.311161e+03 -3.021627e+02  8.131473e+02  2.468598e+03 0.0 0.0 9.0
#pdf 21 21 3.979315e-01 3.482968e-01 5000.0 1.075588e-02 1.993298e-02
</event>
<event>
4 6 1.0 5000.0 7.905138e-03 7.739137e-02
21 -1 0 0 103 101  0.000000e+00  0.000000e+00  3.314776e+03  3.314776e+03 0.0 0.0 9.0
21 -1 0 0 101 102  0.000000e+00  0.000000e+00 -1.948114e+03  1.948114e+03 0.0 0.0 9.0
21  1 1 2 103 102 -8.564227e+02  2.335059e+03  1.436641e+02  2.491305e+03 0.0 0.0 9.0
22  1 1 2   0   0  8.564227e+02 -2.335059e+03  1.222998e+03  2.771585e+03 0.0 0.0 9.0
#pdf 21 21 5.099655e-01 2.997098e-01 5000.0 2.454618e-03 3.614324e-02
</event>
<event>
4 6 1.0 5000.0 7.905138e-03 7.739137e-02
21 -1 0 0 101 102  0.000000e+00  0.000000e+00  2.337987e+03  2.337987e+03 0.0 0.0 9.0
21 -1 0 0 103 101  0.000000e+00  0.000000e+00 -2.415605e+03  2.415605e+03 0.0 0.0 9.0
21  1 1 2 103 102 -2.324564e+02 -2.364572e+03  1.035148e+01  2.375993e+03 0.0 0.0 9.0
22  1 1 2   0   0  2.324564e+02  2.364572e+03 -8.796945e+01  2.377598e+03 0.0 0.0 9.0
#pdf 21 21 3.596903e-01 3.716315e-01 5000.0 1.731402e-02 1.493260e-02
</event>
<event>
4 6 1.0 5000.0 7.905138e-03 7.739137e-02
21 -1 0 0 103 101  0.000000e+00  0.000000e+00  2.385997e+03  2.385997e+03 0.0 0.0 9.0
21 -1 0 0 101 102  0.000000e+00  0.000000e+00 -2.603215e+03  2.603215e+03 0.0 0.0 9.0
22  1 1 2   0   0 -2.436815e+03  5.083648e+02 -2.302160e+02  2.499900e+03 0.0 0.0 9.0
21  1 1 2 103 102  2.436815e+03 -5.083648e+02  1.299776e+01  2.489311e+03 0.0 0.0 9.0
#pdf 21 21 3.670764e-01 4.004946e-01 5000.0 1.580532e-02 1.041478e-02
</event>
<event>
4 6 1.0 5000.0 7.905138e-03 7.739137e-02
21 -1 0 0 101 102  0.000000e+00  0.000000e+00  2.500414e+03  2.500414e+03 0.0 0.0 9.0
21 -1 0 0 103 101  0.000000e+00  0.000000e+00 -2.469328e+03  2.469328e+03 0.0 0.0 9.0
21  1 1 2 103 102 -1.371761e+03  1.987391e+03  6.011253e+02  2.488534e+03 0.0 0.0 9.0
22  1 1 2   0   0  1.371761e+03 -1.987391e+03 -5.700394e+02  2.481208e+03 0.0 0.0 9.0
#pdf 21 21 3.846791e-01 3.798966e-01 5000.0 1.270805e-02 1.349316e-02
</event>
<event>
4 6 1.0 5000.0 7.905138e-03 7.739137e-02
21 -1 0 0 101 102  0.000000e+00  0.000000e+00  2.422783e+03  2.422783e+03 0.0 0.0 9.0
21 -1 0 0 103 101  0.000000e+00  0.000000e+00 -2.481507e+03  2.481507e+03 0.0 0.0 9.0
22  1 1 2   0   0 -1.373661e+03 -1.701327e+03 -1.138808e+03  2.465430e+03 0.0 0.0 9.0
21  1 1 2 103 102  1.373661e+03  1.701327e+03  1.080083e+03  2.438860e+03 0.0 0.0 9.0
#pdf 21 21 3.727358e-01 3.817703e-01 5000.0 1.473412e-02 1.318097e-02
</event>
<event>
4 6 1.0 5000.0 7.905138e-03 7.739137e-02
21 -1 0 0 101 102  0.000000e+00  0.000000e+00  3.014379e+03  3.014379e+03 0.0 0.0 9.0
21 -1 0 0 103 101  0.000000e+00  0.000000e+00 -1.772475e+03  1.772475e+03 0.0 0.0 9.0
21  1 1 2 103 102 -1.036977e+03 -1.843704e+03  1.585842e+03  2.643758e+03 0.0 0.0 9.0
22  1 1 2   0   0  1.036977e+03  1.843704e+03 -3.439379e+02  2.143095e+03 0.0 0.0 9.0
#pdf 21 21 4.637506e-01 2.726884e-01 5000.0 4.600845e-03 5.035352e-02
</event>
<event>
4 6 1.0 5000.0 7.905138e-03 7.739137e-02
21 -1 0 0 101 102  0.000000e+00  0.000000e+00  2.500538e+03  2.500538e+03 0.0 0.0 9.0
21 -1 0 0 103 101  0.000000e+00  0.000000e+00 -2.330767e+03  2.330767e+03 0.0 0.0 9.0
22  1 1 2   0   0  3.305923e+02  1.956065e+03  1.461487e+03  2.464026e+03 0.0 0.0 9.0
21  1 1 2 103 102 -3.305923e+02 -1.956065e+03 -1.291715e+03  2.367279e+03 0.0 0.0 9.0
#pdf 21 21 3.846982e-01 3.585795e-01 5000.0 1.270499e-02 1.755127e-02
</event>
<event>
4 6 1.0 5000.0 7.905138e-03 7.739137e-02
21 -1 0 0 101 102  0.000000e+00  0.000000e+00  2.472913e+03  2.472913e+03 0.0 0.0 9.0
21 -1 0 0 103 101  0.000000e+00  0.000000e+00 -2.149360e+03  2.149360e+03 0.0 0.0 9.0
22  1 1 2   0   0 -1.033796e+02  2.144703e+03 -6.797761e+02  2.252229e+03 0.0 0.0 9.0
21  1 1 2 103 102  1.033796e+02 -2.144703e+03  1.003329e+03  2.370044e+03 0.0 0.0 9.0
#pdf 21 21 3.804481e-01 3.306708e-01 5000.0 1.340069e-02 2.474215e-02
</event>
<event>
4 6 1.0 5000.0 7.905138e-03 7.739137e-02
21 -1 0 0 101 102  0.000000e+00  0.000000e+00  2.316304e+03  2.316304e+03 0.0 0.0 9.0
21 -1 0 0 103 101  0.000000e+00  0.000000e+00 -2.341919e+03  2.341919e+03 0.0 0.0 9.0
22  1 1 2   0   0  1.631239e+03 -3.598366e+02 -1.635846e+03  2.338037e+03 0.0 0.0 9.0
21  1 1 2 103 102 -1.631239e+03  3.598366e+02  1.610231e+03  2.320187e+03 0.0 0.0 9.0
#pdf 21 21 3.563545e-01 3.602953e-01 5000.0 1.803862e-02 1.718626e-02
</event>
<event>
4 6 1.0 5000.0 7.905138e-03 7.739137e-02
21 -1 0 0 103 101  0.000000e+00  0.000000e+00  1.646418e+03  1.646418e+03 0.0 0.0 9.0
21 -1 0 0 101 102  0.000000e+00  0.000000e+00 -3.549150e+03  3.549150e+03 0.0 0.0 9.0
21  1 1 2 103 102  1.729833e+02  1.466689e+03  1.105220e+03  1.844617e+03 0.0 0.0 9.0
22  1 1 2   0   0 -1.729833e+02 -1.466689e+03 -3.007952e+03  3.350951e+03 0.0 0.0 9.0
#pdf 21 21 2.532951e-01 5.460230e-01 5000.0 6.406722e-02 1.465972e-03
</event>
<event>
4 6 1.0 5000.0 7.905138e-03 7.739137e-02
21 -1 0 0 101 102  0.000000e+00  0.000000e+00  1.854367e+03  1.854367e+03 0.0 0.0 9.0
21 -1 0 0 103 101  0.000000e+00  0.000000e+00 -2.768892e+03  2.768892e+03 0.0 0.0 9.0
22  1 1 2   0   0 -2.664021e+01 -2.065973e+03  4.918614e+02  2.123883e+03 0.0 0.0 9.0
21  1 1 2 103 102  2.664021e+01  2.065973e+03 -1.406387e+03  2.499376e+03 0.0 0.0 9.0
#pdf 21 21 2.852872e-01 4.259834e-01 5000.0 4.313333e-02 7.530289e-03
</event>
<event>
4 6 1.0 5000.0 7.905138e-03 7.739137e-02
21 -1 0 0 103 101  0.000000e+00  0.000000e+00  2.737749e+03  2.737749e+03 0.0 0.0 9.0
21 -1 0 0 101 102  0.000000e+00  0.000000e+00 -2.282262e+03  2.282262e+03 0.0 0.0 9.0
22  1 1 2   0   0 -1.938893e+02  2.233483e+03  1.337865e+03  2.610732e+03 0.0 0.0 9.0
21  1 1 2 103 102  1.938893e+02 -2.233483e+03 -8.823769e+02  2.409279e+03 0.0 0.0 9.0
#pdf 21 21 4.211922e-01 3.511172e-01 5000.0 8.007511e-03 1.925243e-02
</event>
<event>
4 6 1.0 5000.0 7.905138e-03 7.739137e-02
21 -1 0 0 101 102  0.000000e+00  0.000000e+00  5.040237e+03  5.040237e+03 0.0 0.0 9.0
21 -1 0 0 103 101  0.000000e+00  0.000000e+00 -1.241674e+03  1.241674e+03 0.0 0.0 9.0
22  1 1 2   0   0 -2.191922e+03  5.380389e+02  3.254062e+03  3.960168e+03 0.0 0.0 9.0
21  1 1 2 103 102  2.191922e+03 -5.380389e+02  5.445012e+02  2.321743e+03 0.0 0.0 9.0
#pdf 21 21 7.754211e-01 1.910267e-01 5000.0 1.975225e-05 1.415111e-01
</event>
<event>
4 6 1.0 5000.0 7.905138e-03 7.739137e-02
21 -1 0 0 103 101  0.000000e+00  0.000000e+00  2.409944e+03  2.409944e+03 0.0 0.0 9.0
21 -1 0 0 101 102  0.000000e+00  0.000000e+00 -2.569157e+03  2.569157e+03 0.0 0.0 9.0
21  1 1 2 103 102 -1.638490e+03 -1.782430e+03 -6.541969e+02  2.507924e+03 0.0 0.0 9.0
22  1 1 2   0   0  1.638490e+03  1.782430e+03  4.949834e+02  2.471177e+03 0.0 0.0 9.0
#pdf 21 21 3.707606e-01 3.952550e-01 5000.0 1.509297e-02 1.112369e-02
</event>
<event>
4 6 1.0 5000.0 7.905138e-03 7.739137e-02
21 -1 0 0 101 102  0.000000e+00  0.000000e+00  2.057104e+03  2.057104e+03 0.0 0.0 9.0
21 -1 0 0 103 101  0.000000e+00  0.000000e+00 -3.136105e+03  3.136105e+03 0.0 0.0 9.0
21  1 1 2 103 102 -2.198502e+03 -3.841228e+02 -1.779126e+03  2.854163e+03 0.0 0.0 9.0
22  1 1 2   0   0  2.198502e+03  3.841228e+02  7.001254e+02  2.339046e+03 0.0 0.0 9.0
#pdf 21 21 3.164776e-01 4.824777e-01 5000.0 2.943913e-02 3.579917e-03
</event>
<event>
4 6 1.0 5000.0 7.905138e-03 7.739137e-02
21 -1 0 0 101 102  0.000000e+00  0.000000e+00  2.920438e+03  2.920438e+03 0.0 0.0 9.0
21 -1 0 0 103 101  0.000000e+00  0.000000e+00 -2.144180e+03  2.144180e+03 0.0 0.0 9.0
21  1 1 2 103 102  1.423974e+03  2.335981e+02  2.457000e+03  2.849407e+03 0.0 0.0 9.0
22  1 1 2   0   0 -1.423974e+03 -2.335981e+02 -1.680742e+03  2.215212e+03 0.0 0.0 9.0
#pdf 21 21 4.492982e-01 3.298738e-01 5000.0 5.567183e-03 2.498482e-02
</event>
<event>
4 6 1.0 5000.0 7.905138e-03 7.739137e-02
21 -1 0 0 101 102  0.000000e+00  0.000000e+00  1.879116e+03  1.879116e+03 0.0 0.0 9.0
21 -1 0 0 103 101  0.000000e+00  0.000000e+00 -3.096569e+03  3.096569e+03 0.0 0.0 9.0
22  1 1 2   0   0  1.455141e+02 -9.692606e+02  1.664497e+03  1.931629e+03 0.0 0.0 9.0
21  1 1 2 103 102 -1.455141e+02  9.692606e+02 -2.881950e+03  3.044056e+03 0.0 0.0 9.0
#pdf 21 21 2.890947e-01 4.763952e-01 5000.0 4.118803e-02 3.887095e-03
</event>
<event>
4 6 1.0 5000.0 7.905138e-03 7.739137e-02
21 -1 0 0 101 102  0.000000e+00  0.000000e+00  3.646260e+03  3.646260e+03 0.0 0.0 9.0
21 -1 0 0 103 101  0.000000e+00  0.000000e+00 -1.777245e+03  1.777245e+03 0.0 0.0 9.0
22  1 1 2   0   0 -8.603535e+02 -2.223642e+03 -1.560249e+01  2.384331e+03 0.0 0.0 9.0
21  1 1 2 103 102  8.603535e+02  2.223642e+03  1.884617e+03  3.039173e+03 0.0 0.0 9.0
#pdf 21 21 5.609630e-01 2.734223e-01 5000.0 1.176242e-03 4.990157e-02
</event>
<event>
4 6 1.0 5000.0 7.905138e-03 7.739137e-02
21 -1 0 0 103 101  0.000000e+00  0.000000e+00  1.665840e+03  1.665840e+03 0.0 0.0 9.0
21 -1 0 0 101 102  0.000000e+00  0.000000e+00 -2.641101e+03  2.641101e+03 0.0 0.0 9.0
21  1 1 2 103 102 -1.085272e+03 -1.191924e+03  8.902293e+02  1.841469e+03 0.0 0.0 9.0
22  1 1 2   0   0  1.085272e+03  1.191924e+03 -1.865491e+03  2.465473e+03 0.0 0.0 9.0
#pdf 21 21 2.562831e-01 4.063233e-01 5000.0 6.171797e-02 9.675944e-03
</event>
<event>
4 6 1.0 5000.0 7.905138e-03 7.739137e-02
21 -1 0 0 101 102  0.000000e+00  0.000000e+00  1.985271e+03  1.985271e+03 0.0 0.0 9.0
21 -1 0 0 103 101  0.000000e+00  0.000000e+00 -2.190069e+03  2.190069e+03 0.0 0.0 9.0
21  1 1 2 103 102  1.996023e+03  5.809609e+02 -2.646401e+02  2.095628e+03 0.0 0.0 9.0
22  1 1 2   0   0 -1.996023e+03 -5.809609e+02  5.984197e+01  2.079712e+03 0.0 0.0 9.0
#pdf 21 21 3.054263e-01 3.369337e-01 5000.0 3.373692e-02 2.290915e-02
</event>
<event>
4 6 1.0 5000.0 7.905138e-03 7.739137e-02
21 -1 0 0 103 101  0.000000e+00  0.000000e+00  2.416596e+03  2.416596e+03 0.0 0.0 9.0
21 -1 0 0 101 102  0.000000e+00  0.000000e+00 -1.988542e+03  1.988542e+03 0.0 0.0 9.0
22  1 1 2   0   0  1.884800e+03  2.710206e+02 -8.772215e+02  2.096530e+03 0.0 0.0 9.0
21  1 1 2 103 102 -1.884800e+03 -2.710206e+02  1.305276e+03  2.308607e+03 0.0 0.0 9.0
#pdf 21 21 3.717840e-01 3.059295e-01 5000.0 1.490487e-02 3.353086e-02
</event>
<event>
4 6 1.0 5000.0 7.905138e-03 7.739137e-02
21 -1 0 0 101 102  0.000000e+00  0.000000e+00  1.908240e+03  1.908240e+03 0.0 0.0 9.0
21 -1 0 0 103 101  0.000000e+00  0.000000e+00 -2.821042e+03  2.821042e+03 0.0 0.0 9.0
21  1 1 2 103 102  5.288079e+01  1.629372e+03 -2.138971e+03  2.689395e+03 0.0 0.0 9.0
22  1 1 2   0   0 -5.288079e+01 -1.629372e+03  1.226169e+03  2.039887e+03 0.0 0.0 9.0
#pdf 21 21 2.935754e-01 4.340065e-01 5000.0 3.900783e-02 6.794282e-03
</event>
<event>
4 6 1.0 5000.0 7.905138e-03 7.739137e-02
21 -1 0 0 103 101  0.000000e+00  0.000000e+00  2.878766e+03  2.878766e+03 0.0 0.0 9.0
21 -1 0 0 101 102  0.000000e+00  0.000000e+00 -2.249942e+03  2.249942e+03 0.0 0.0 9.0
22  1 1 2   0   0  2.056346e+03 -6.465659e+02  1.677639e+03  2.731498e+03 0.0 0.0 9.0
21  1 1 2 103 102 -2.056346e+03  6.465659e+02 -1.048815e+03  2.397211e+03 0.0 0.0 9.0
#pdf 21 21 4.428871e-01 3.461450e-01 5000.0 6.056679e-03 2.046566e-02
</event>
<event>
4 6 1.0 5000.0 7.905138e-03 7.739137e-02
21 -1 0 0 101 102  0.000000e+00  0.000000e+00  1.712557e+03  1.712557e+03 0.0 0.0 9.0
21 -1 0 0 103 101  0.000000e+00  0.000000e+00 -3.413433e+03  3.413433e+03 0.0 0.0 9.0
21  1 1 2 103 102  2.408130e+03  3.887190e+01 -1.075549e+03  2.637690e+03 0.0 0.0 9.0
22  1 1 2   0   0 -2.408130e+03 -3.887190e+01 -6.253269e+02  2.488300e+03 0.0 0.0 9.0
#pdf 21 21 2.634703e-01 5.251435e-01 5000.0 5.641362e-02 1.982223e-03
</event>
<event>
4 6 1.0 5000.0 7.905138e-03 7.739137e-02
21 -1 0 0 103 101  0.000000e+00  0.000000e+00  2.526871e+03  2.526871e+03 0.0 0.0 9.0
21 -1 0 0 101 102  0.000000e+00  0.000000e+00 -2.118817e+03  2.118817e+03 0.0 0.0 9.0
21  1 1 2 103 102 -3.644574e+02  2.120147e+03 -6.514100e+02  2.247707e+03 0.0 0.0 9.0
22  1 1 2   0   0  3.644574e+02 -2.120147e+03  1.059464e+03  2.397981e+03 0.0 0.0 9.0
#pdf 21 21 3.887494e-01 3.259719e-01 5000.0 1.207232e-02 2.620637e-02
</event>
<event>
4 6 1.0 5000.0 7.905138e-03 7.739137e-02
21 -1 0 0 101 102  0.000000e+00  0.000000e+00  2.315271e+03  2.315271e+03 0.0 0.0 9.0
21 -1 0 0 103 101  0.000000e+00  0.000000e+00 -2.648526e+03  2.648526e+03 0.0 0.0 9.0
22  1 1 2   0   0  2.275833e+03 -6.354225e+02  5.759100e+02  2.432047e+03 0.0 0.0 9.0
21  1 1 2 103 102 -2.275833e+03  6.354225e+02 -9.091645e+02  2.531750e+03 0.0 0.0 9.0
#pdf 21 21 3.561955e-01 4.074655e-01 5000.0 1.807413e-02 9.536669e-03
</event>
<event>
4 6 1.0 5000.0 7.905138e-03 7.739137e-02
21 -1 0 0 103 101  0.000000e+00  0.000000e+00  1.356816e+03  1.356816e+03 0.0 0.0 9.0
21 -1 0 0 101 102  0.000000e+00  0.000000e+00 -4.378423e+03  4.378423e+03 0.0 0.0 9.0
22  1 1 2   0   0 -9.111589e+00  2.185516e+03 -2.413793e+02  2.198824e+03 0.0 0.0 9.0
21  1 1 2 103 102  9.111589e+00 -2.185516e+03 -2.780228e+03  3.536415e+03 0.0 0.0 9.0
#pdf 21 21 2.087409e-01 6.736036e-01 5000.0 1.122920e-01 1.803351e-04
</event>
<event>
4 6 1.0 5000.0 7.905138e-03 7.739137e-02
21 -1 0 0 103 101  0.000000e+00  0.000000e+00  2.027231e+03  2.027231e+03 0.0 0.0 9.0
21 -1 0 0 101 102  0.000000e+00  0.000000e+00 -2.854631e+03  2.854631e+03 0.0 0.0 9.0
22  1 1 2   0   0 -2.055511e+02  1.711406e+03 -2.116378e+03  2.729509e+03 0.0 0.0 9.0
21  1 1 2 103 102  2.055511e+02 -1.711406e+03  1.288978e+03  2.152354e+03 0.0 0.0 9.0
#pdf 21 21 3.118817e-01 4.391741e-01 5000.0 3.116187e-02 6.358323e-03
</event>
<event>
4 6 1.0 5000.0 7.905138e-03 7.739137e-02
21 -1 0 0 103 101  0.000000e+00  0.000000e+00  3.299434e+03  3.299434e+03 0.0 0.0 9.0
21 -1 0 0 101 102  0.000000e+00  0.000000e+00 -1.702705e+03  1.702705e+03 0.0 0.0 9.0
21  1 1 2 103 102 -1.873391e+03  8.461763e+02  2.043485e+03  2.898524e+03 0.0 0.0 9.0
22  1 1 2   0   0  1.873391e+03 -8.461763e+02 -4.467564e+02  2.103615e+03 0.0 0.0 9.0
#pdf 21 21 5.076052e-01 2.619546e-01 5000.0 2.536450e-03 5.748665e-02
</event>
<event>
4 6 1.0 5000.0 7.905138e-03 7.739137e-02
21 -1 0 0 101 102  0.000000e+00  0.000000e+00  1.276742e+03  1.276742e+03 0.0 0.0 9.0
21 -1 0 0 103 101  0.000000e+00  0.000000e+00 -4.111101e+03  4.111101e+03 0.0 0.0 9.0
21  1 1 2 103 102 -7.851735e+02  1.386203e+03 -3.353155e+03  3.712372e+03 0.0 0.0 9.0
22  1 1 2   0   0  7.851735e+02 -1.386203e+03  5.187957e+02  1.675472e+03 0.0 0.0 9.0
#pdf 21 21 1.964218e-01 6.324771e-01 5000.0 1.317999e-01 3.754521e-04
</event>
<event>
4 6 1.0 5000.0 7.905138e-03 7.739137e-02
21 -1 0 0 101 102  0.000000e+00  0.000000e+00  2.086951e+03  2.086951e+03 0.0 0.0 9.0
21 -1 0 0 103 101  0.000000e+00  0.000000e+00 -3.235415e+03  3.235415e+03 0.0 0.0 9.0
22  1 1 2   0   0  1.875037e+03 -1.685861e+03 -1.217282e+03  2.799941e+03 0.0 0.0 9.0
21  1 1 2 103 102 -1.875037e+03  1.685861e+03  6.881700e+01  2.522425e+03 0.0 0.0 9.0
#pdf 21 21 3.210694e-01 4.977562e-01 5000.0 2.782605e-02 2.907196e-03
</event>
<event>
4 6 1.0 5000.0 7.905138e-03 7.739137e-02
21 -1 0 0 101 102  0.000000e+00  0.000000e+00  2.575363e+03  2.575363e+03 0.0 0.0 9.0
21 -1 0 0 103 101  0.000000e+00  0.000000e+00 -2.455854e+03  2.455854e+03 0.0 0.0 9.0
22  1 1 2   0   0 -5.077570e+02  2.398213e+03  6.215837e+02  2.528954e+03 0.0 0.0 9.0
21  1 1 2 103 102  5.077570e+02 -2.398213e+03 -5.020746e+02  2.502263e+03 0.0 0.0 9.0
#pdf 21 21 3.962097e-01 3.778237e-01 5000.0 1.099108e-02 1.384498e-02
</event>
<event>
4 6 1.0 5000.0 7.905138e-03 7.739137e-02
21 -1 0 0 101 102  0.000000e+00  0.000000e+00  2.770379e+03  2.770379e+03 0.0 0.0 9.0
21 -1 0 0 103 101  0.000000e+00  0.000000e+00 -2.394308e+03  2.394308e+03 0.0 0.0 9.0
21  1 1 2 103 102  2.424834e+02  1.476456e+03  2.289902e+03  2.735392e+03 0.0 0.0 9.0
22  1 1 2   0   0 -2.424834e+02 -1.476456e+03 -1.913831e+03  2.429294e+03 0.0 0.0 9.0
#pdf 21 21 4.262121e-01 3.683550e-01 5000.0 7.508123e-03 1.555245e-02
</event>
<event>
4 6 1.0 5000.0 7.905138e-03 7.739137e-02
21 -1 0 0 101 102  0.000000e+00  0.000000e+00  2.291375e+03  2.291375e+03 0.0 0.0 9.0
21 -1 0 0 103 101  0.000000e+00  0.000000e+00 -2.417687e+03  2.417687e+03 0.0 0.0 9.0
21  1 1 2 103 102  1.592952e+03  4.175923e+02  1.619100e+03  2.309408e+03 0.0 0.0 9.0
22  1 1 2   0   0 -1.592952e+03 -4.175923e+02 -1.745412e+03  2.399655e+03 0.0 0.0 9.0
#pdf 21 21 3.525193e-01 3.719519e-01 5000.0 1.892079e-02 1.487446e-02
</event>
<event>
4 6 1.0 5000.0 7.905138e-03 7.739137e-02
21 -1 0 0 101 102  0.000000e+00  0.000000e+00  2.731283e+03  2.731283e+03 0.0 0.0 9.0
21 -1 0 0 103 101  0.000000e+00  0.000000e+00 -2.232205e+03  2.232205e+03 0.0 0.0 9.0
22  1 1 2   0   0  1.946915e+02 -6.858189e+02 -2.126510e+03  2.242833e+03 0.0 0.0 9.0
21  1 1 2 103 102 -1.946915e+02  6.858189e+02  2.625588e+03  2.720655e+03 0.0 0.0 9.0
#pdf 21 21 4.201973e-01 3.434162e-01 5000.0 8.109859e-03 2.116005e-02
</event>
<event>
4 6 1.0 5000.0 7.905138e-03 7.739137e-02
21 -1 0 0 101 102  0.000000e+00  0.000000e+00  1.879503e+03  1.879503e+03 0.0 0.0 9.0
21 -1 0 0 103 101  0.000000e+00  0.000000e+00 -3.445872e+03  3.445872e+03 0.0 0.0 9.0
21  1 1 2 103 102  6.100408e+02 -9.958317e+02  1.582594e+03  1.966834e+03 0.0 0.0 9.0
22  1 1 2   0   0 -6.100408e+02  9.958317e+02 -3.148963e+03  3.358541e+03 0.0 0.0 9.0
#pdf 21 21 2.891543e-01 5.301341e-01 5000.0 4.115835e-02 1.846530e-03
</event>
<event>
4 6 1.0 5000.0 7.905138e-03 7.739137e-02
21 -1 0 0 103 101  0.000000e+00  0.000000e+00  2.746660e+03  2.746660e+03 0.0 0.0 9.0
21 -1 0 0 101 102  0.000000e+00  0.000000e+00 -2.203382e+03  2.203382e+03 0.0 0.0 9.0
22  1 1 2   0   0 -2.229646e+03 -3.748137e+02  1.247137e+03  2.582084e+03 0.0 0.0 9.0
21  1 1 2 103 102  2.229646e+03  3.748137e+02 -7.038588e+02  2.367958e+03 0.0 0.0 9.0
#pdf 21 21 4.225631e-01 3.389818e-01 5000.0 7.868379e-03 2.233993e-02
</event>
<event>
4 6 1.0 5000.0 7.905138e-03 7.739137e-02
21 -1 0 0 103 101  0.000000e+00  0.000000e+00  2.646118e+03  2.646118e+03 0.0 0.0 9.0
21 -1 0 0 101 102  0.000000e+00  0.000000e+00 -2.397223e+03  2.397223e+03 0.0 0.0 9.0
21  1 1 2 103 102  1.371878e+03 -2.111941e+03  9.293743e+01  2.520116e+03 0.0 0.0 9.0
22  1 1 2   0   0 -1.371878e+03  2.111941e+03  1.559580e+02  2.523226e+03 0.0 0.0 9.0
#pdf 21 21 4.070951e-01 3.688035e-01 5000.0 9.581642e-03 1.546506e-02
</event>
<event>
4 6 1.0 5000.0 7.905138e-03 7.739137e-02
21 -1 0 0 101 102  0.000000e+00  0.000000e+00  2.398745e+03  2.398745e+03 0.0 0.0 9.0
21 -1 0 0 103 101  0.000000e+00  0.000000e+00 -2.468151e+03  2.468151e+03 0.0 0.0 9.0
21  1 1 2 103 102  4.120809e+02 -2.389159e+03  1.716593e+02  2.430505e+03 0.0 0.0 9.0
22  1 1 2   0   0 -4.120809e+02  2.389159e+03 -2.410650e+02  2.436391e+03 0.0 0.0 9.0
#pdf 21 21 3.690378e-01 3.797156e-01 5000.0 1.541971e-02 1.352363e-02
</event>
<event>
4 6 1.0 5000.0 7.905138e-03 7.739137e-02
21 -1 0 0 103 101  0.000000e+00  0.000000e+00  2.750280e+03  2.750280e+03 0.0 0.0 9.0
21 -1 0 0 101 102  0.000000e+00  0.000000e+00 -2.159598e+03  2.159598e+03 0.0 0.0 9.0
21  1 1 2 103 102  4.051955e+02  1.368261e+03  2.285441e+03  2.694357e+03 0.0 0.0 9.0
22  1 1 2   0   0 -4.051955e+02 -1.368261e+03 -1.694759e+03  2.215520e+03 0.0 0.0 9.0
#pdf 21 21 4.231199e-01 3.322458e-01 5000.0 7.812473e-03 2.426903e-02
</event>
<event>
4 6 1.0 5000.0 7.905138e-03 7.739137e-02
21 -1 0 0 101 102  0.000000e+00  0.000000e+00  2.822210e+03  2.822210e+03 0.0 0.0 9.0
21 -1 0 0 103 101  0.000000e+00  0.000000e+00 -2.037070e+03  2.037070e+03 0.0 0.0 9.0
22  1 1 2   0   0  6.136124e+02  2.313327e+03  5.395456e+02  2.453388e+03 0.0 0.0 9.0
21  1 1 2 103 102 -6.136124e+02 -2.313327e+03  2.455943e+02  2.405893e+03 0.0 0.0 9.0
#pdf 21 21 4.341862e-01 3.133955e-01 5000.0 6.778713e-03 3.058297e-02
</event>
<event>
4 6 1.0 5000.0 7.905138e-03 7.739137e-02
21 -1 0 0 103 101  0.000000e+00  0.000000e+00  3.931622e+03  3.931622e+03 0.0 0.0 9.0
21 -1 0 0 101 102  0.000000e+00  0.000000e+00 -1.369927e+03  1.369927e+03 0.0 0.0 9.0
21  1 1 2 103 102 -4.282715e+02 -5.252824e+02  3.816070e+03  3.875788e+03 0.0 0.0 9.0
22  1 1 2   0   0  4.282715e+02  5.252824e+02 -1.254375e+03  1.425761e+03 0.0 0.0 9.0
#pdf 21 21 6.048649e-01 2.107579e-01 5000.0 5.938068e-04 1.094610e-01
</event>
<event>
4 6 1.0 5000.0 7.905138e-03 7.739137e-02
21 -1 0 0 103 101  0.000000e+00  0.000000e+00  3.306676e+03  3.306676e+03 0.0 0.0 9.0
21 -1 0 0 101 102  0.000000e+00  0.000000e+00 -1.749294e+03  1.749294e+03 0.0 0.0 9.0
21  1 1 2 103 102  1.733208e+03  7.337527e+02 -7.951462e+02  2.043198e+03 0.0 0.0 9.0
22  1 1 2   0   0 -1.733208e+03 -7.337527e+02  2.352528e+03  3.012771e+03 0.0 0.0 9.0
#pdf 21 21 5.087194e-01 2.691221e-01 5000.0 2.497516e-03 5.261081e-02
</event>
<event>
4 6 1.0 5000.0 7.905138e-03 7.739137e-02
21 -1 0 0 103 101  0.000000e+00  0.000000e+00  2.930475e+03  2.930475e+03 0.0 0.0 9.0
21 -1 0 0 101 102  0.000000e+00  0.000000e+00 -2.153232e+03  2.153232e+03 0.0 0.0 9.0
22  1 1 2   0   0 -1.821199e+03 -1.079563e+03 -9.794122e+02  2.332696e+03 0.0 0.0 9.0
21  1 1 2 103 102  1.821199e+03  1.079563e+03  1.756655e+03  2.751011e+03 0.0 0.0 9.0
#pdf 21 21 4.508423e-01 3.312664e-01 5000.0 5.457611e-03 2.456223e-02
</event>
<event>
4 6 1.0 5000.0 7.905138e-03 7.739137e-02
21 -1 0 0 101 102  0.000000e+00  0.000000e+00  2.829170e+03  2.829170e+03 0.0 0.0 9.0
21 -1 0 0 103 101  0.000000e+00  0.000000e+00 -2.090985e+03  2.090985e+03 0.0 0.0 9.0
22  1 1 2   0   0  5.386462e+02  1.426355e+03  2.285815e+03  2.747649e+03 0.0 0.0 9.0
21  1 1 2 103 102 -5.386462e+02 -1.426355e+03 -1.547629e+03  2.172506e+03 0.0 0.0 9.0
#pdf 21 21 4.352570e-01 3.216900e-01 5000.0 6.686615e-03 2.761543e-02
</event>
<event>
4 6 1.0 5000.0 7.905138e-03 7.739137e-02
21 -1 0 0 101 102  0.000000e+00  0.000000e+00  3.630287e+03  3.630287e+03 0.0 0.0 9.0
21 -1 0 0 103 101  0.000000e+00  0.000000e+00 -1.504534e+03  1.504534e+03 0.0 0.0 9.0
22  1 1 2   0   0  1.642769e+03  6.941146e+02  2.722177e+03  3.254340e+03 0.0 0.0 9.0
21  1 1 2 103 102 -1.642769e+03 -6.941146e+02 -5.964241e+02  1.880480e+03 0.0 0.0 9.0
#pdf 21 21 5.585057e-01 2.314668e-01 5000.0 1.220092e-03 8.408357e-02
</event>
<event>
4 6 1.0 5000.0 7.905138e-03 7.739137e-02
21 -1 0 0 101 102  0.000000e+00  0.000000e+00  2.487438e+03  2.487438e+03 0.0 0.0 9.0
21 -1 0 0 103 101  0.000000e+00  0.000000e+00 -3.055174e+03  3.055174e+03 0.0 0.0 9.0
21  1 1 2 103 102  2.660823e+03  1.602769e+02 -9.903546e+02  2.843672e+03 0.0 0.0 9.0
22  1 1 2   0   0 -2.660823e+03 -1.602769e+02  4.226190e+02  2.698940e+03 0.0 0.0 9.0
#pdf 21 21 3.826828e-01 4.700267e-01 5000.0 1.303104e-02 4.233281e-03
</event>
<event>
4 6 1.0 5000.0 7.905138e-03 7.739137e-02
21 -1 0 0 103 101  0.000000e+00  0.000000e+00  2.474276e+03  2.474276e+03 0.0 0.0 9.0
21 -1 0 0 101 102  0.000000e+00  0.000000e+00 -2.766271e+03  2.766271e+03 0.0 0.0 9.0
21  1 1 2 103 102 -1.045004e+03  1.067254e+03 -2.297234e+03  2.740137e+03 0.0 0.0 9.0
22  1 1 2   0   0  1.045004e+03 -1.067254e+03  2.005240e+03  2.500410e+03 0.0 0.0 9.0
#pdf 21 21 3.806578e-01 4.255801e-01 5000.0 1.336564e-02 7.569512e-03
</event>
<event>
4 6 1.0 5000.0 7.905138e-03 7.739137e-02
21 -1 0 0 101 102  0.000000e+00  0.000000e+00  2.670900e+03  2.670900e+03 0.0 0.0 9.0
21 -1 0 0 103 101  0.000000e+00  0.000000e+00 -2.228473e+03  2.228473e+03 0.0 0.0 9.0
22  1 1 2   0   0  4.809179e+02  1.129487e+03  2.338181e+03  2.640854e+03 0.0 0.0 9.0
21  1 1 2 103 102 -4.809179e+02 -1.129487e+03 -1.895754e+03  2.258519e+03 0.0 0.0 9.0
#pdf 21 21 4.109077e-01 3.428420e-01 5000.0 9.127691e-03 2.130907e-02
</event>
<event>
4 6 1.0 5000.0 7.905138e-03 7.739137e-02
21 -1 0 0 103 101  0.000000e+00  0.000000e+00  3.312035e+03  3.312035e+03 0.0 0.0 9.0
21 -1 0 0 101 102  0.000000e+00  0.000000e+00 -1.831445e+03  1.831445e+03 0.0 0.0 9.0
21  1 1 2 103 102 -2.797223e+02  6.321256e+02  3.208664e+03  3.282279e+03 0.0 0.0 9.0
22  1 1 2   0   0  2.797223e+02 -6.321256e+02 -1.728074e+03  1.861201e+03 0.0 0.0 9.0
#pdf 21 21 5.095438e-01 2.817607e-01 5000.0 2.469061e-03 4.503614e-02
</event>
<event>
4 6 1.0 5000.0 7.905138e-03 7.739137e-02
21 -1 0 0 103 101  0.000000e+00  0.000000e+00  3.536874e+03  3.536874e+03 0.0 0.0 9.0
21 -1 0 0 101 102  0.000000e+00  0.000000e+00 -1.740756e+03  1.740756e+03 0.0 0.0 9.0
22  1 1 2   0   0  3.216101e+02 -1.300234e+03 -1.323268e+03  1.882838e+03 0.0 0.0 9.0
21  1 1 2 103 102 -3.216101e+02  1.300234e+03  3.119386e+03  3.394792e+03 0.0 0.0 9.0
#pdf 21 21 5.441345e-01 2.678086e-01 5000.0 1.506936e-03 5.346894e-02
</event>
<event>
4 6 1.0 5000.0 7.905138e-03 7.739137e-02
21 -1 0 0 103 101  0.000000e+00  0.000000e+00  1.719975e+03  1.719975e+03 0.0 0.0 9.0
21 -1 0 0 101 102  0.000000e+00  0.000000e+00 -3.636897e+03  3.636897e+03 0.0 0.0 9.0
22  1 1 2   0   0 -1.685947e+03  2.183268e+02 -2.923023e+03  3.381442e+03 0.0 0.0 9.0
21  1 1 2 103 102  1.685947e+03 -2.183268e+02  1.006101e+03  1.975430e+03 0.0 0.0 9.0
#pdf 21 21 2.646115e-01 5.595226e-01 5000.0 5.562196e-02 1.201823e-03
</event>
<event>
4 6 1.0 5000.0 7.905138e-03 7.739137e-02
21 -1 0 0 103 101  0.000000e+00  0.000000e+00  3.006625e+03  3.006625e+03 0.0 0.0 9.0
21 -1 0 0 101 102  0.000000e+00  0.000000e+00 -1.528921e+03  1.528921e+03 0.0 0.0 9.0
21  1 1 2 103 102 -5.364247e+02  1.863585e+03  1.706060e+03  2.582894e+03 0.0 0.0 9.0
22  1 1 2   0   0  5.364247e+02 -1.863585e+03 -2.283558e+02  1.952652e+03 0.0 0.0 9.0
#pdf 21 21 4.625576e-01 2.352186e-01 5000.0 4.673929e-03 8.025315e-02
</event>
<event>
4 6 1.0 5000.0 7.905138e-03 7.739137e-02
21 -1 0 0 101 102  0.000000e+00  0.000000e+00  1.999901e+03  1.999901e+03 0.0 0.0 9.0
21 -1 0 0 103 101  0.000000e+00  0.000000e+00 -2.967927e+03  2.967927e+03 0.0 0.0 9.0
21  1 1 2 103 102 -3.786385e+02  2.258636e+03  3.633466e+02  2.318799e+03 0.0 0.0 9.0
22  1 1 2   0   0  3.786385e+02 -2.258636e+03 -1.331373e+03  2.649030e+03 0.0 0.0 9.0
#pdf 21 21 3.076771e-01 4.566042e-01 5000.0 3.282157e-02 5.059304e-03
</event>
<event>
4 6 1.0 5000.0 7.905138e-03 7.739137e-02
21 -1 0 0 101 102  0.000000e+00  0.000000e+00  2.073955e+03  2.073955e+03 0.0 0.0 9.0
21 -1 0 0 103 101  0.000000e+00  0.000000e+00 -3.229478e+03  3.229478e+03 0.0 0.0 9.0
21  1 1 2 103 102 -1.394257e+03 -6.886285e+02 -2.697413e+03  3.113551e+03 0.0 0.0 9.0
22  1 1 2   0   0  1.394257e+03  6.886285e+02  1.541889e+03  2.189882e+03 0.0 0.0 9.0
#pdf 21 21 3.190700e-01 4.968428e-01 5000.0 2.851611e-02 2.943991e-03
</event>
<event>
4 6 1.0 5000.0 7.905138e-03 7.739137e-02
21 -1 0 0 103 101  0.000000e+00  0.000000e+00  1.978314e+03  1.978314e+03 0.0 0.0 9.0
21 -1 0 0 101 102  0.000000e+00  0.000000e+00 -2.673249e+03  2.673249e+03 0.0 0.0 9.0
21  1 1 2 103 102  1.650186e+03 -1.443147e+03  3.552147e+02  2.220802e+03 0.0 0.0 9.0
22  1 1 2   0   0 -1.650186e+03  1.443147e+03 -1.050149e+03  2.430761e+03 0.0 0.0 9.0
#pdf 21 21 3.043561e-01 4.112691e-01 5000.0 3.417769e-02 9.085798e-03
</event>
<event>
4 6 1.0 5000.0 7.905138e-03 7.739137e-02
21 -1 0 0 103 101  0.000000e+00  0.000000e+00  2.176237e+03  2.176237e+03 0.0 0.0 9.0
21 -1 0 0 101 102  0.000000e+00  0.000000e+00 -2.975985e+03  2.975985e+03 0.0 0.0 9.0
22  1 1 2   0   0  1.112165e+03  2.215141e+03  1.839916e+02  2.485481e+03 0.0 0.0 9.0
21  1 1 2 103 102 -1.112165e+03 -2.215141e+03 -9.837397e+02  2.666741e+03 0.0 0.0 9.0
#pdf 21 21 3.348056e-01 4.578438e-01 5000.0 2.351768e-02 4.976497e-03
</event>
<event>
4 6 1.0 5000.0 7.905138e-03 7.739137e-02
21 -1 0 0 101 102  0.000000e+00  0.000000e+00  2.549395e+03  2.549395e+03 0.0 0.0 9.0
21 -1 0 0 103 101  0.000000e+00  0.000000e+00 -1.987428e+03  1.987428e+03 0.0 0.0 9.0
21  1 1 2 103 102 -1.060448e+03  1.535240e+03 -9.878459e+02  2.111244e+03 0.0 0.0 9.0
22  1 1 2   0   0  1.060448e+03 -1.535240e+03  1.549813e+03  2.425579e+03 0.0 0.0 9.0
#pdf 21 21 3.922147e-01 3.057582e-01 5000.0 1.155691e-02 3.360092e-02
</event>
<event>
4 6 1.0 5000.0 7.905138e-03 7.739137e-02
21 -1 0 0 101 102  0.000000e+00  0.000000e+00  1.373303e+03  1.373303e+03 0.0 0.0 9.0
21 -1 0 0 103 101  0.000000e+00  0.000000e+00 -3.207198e+03  3.207198e+03 0.0 0.0 9.0
22  1 1 2   0   0  8.130101e+02 -1.281580e+01  1.194424e+03  1.444921e+03 0.0 0.0 9.0
21  1 1 2 103 102 -8.130101e+02  1.281580e+01 -3.028318e+03  3.135580e+03 0.0 0.0 9.0
#pdf 21 21 2.112774e-01 4.934151e-01 5000.0 1.087417e-01 3.085531e-03
</event>
<event>
4 6 1.0 5000.0 7.905138e-03 7.739137e-02
21 -1 0 0 101 102  0.000000e+00  0.000000e+00  1.507295e+03  1.507295e+03 0.0 0.0 9.0
21 -1 0 0 103 101  0.000000e+00  0.000000e+00 -2.921749e+03  2.921749e+03 0.0 0.0 9.0
22  1 1 2   0   0  4.911091e+02  1.925269e+03  5.437044e+00  1.986927e+03 0.0 0.0 9.0
21  1 1 2 103 102 -4.911091e+02 -1.925269e+03 -1.419891e+03  2.442118e+03 0.0 0.0 9.0
#pdf 21 21 2.318916e-01 4.494999e-01 5000.0 8.363939e-02 5.552820e-03
</event>
<event>
4 6 1.0 5000.0 7.905138e-03 7.739137e-02
21 -1 0 0 103 101  0.000000e+00  0.000000e+00  4.306123e+03  4.306123e+03 0.0 0.0 9.0
21 -1 0 0 101 102  0.000000e+00  0.000000e+00 -1.571072e+03  1.571072e+03 0.0 0.0 9.0
21  1 1 2 103 102  2.275713e+03  1.104757e+03  2.050908e+03  3.256621e+03 0.0 0.0 9.0
22  1 1 2   0   0 -2.275713e+03 -1.104757e+03  6.841433e+02  2.620574e+03 0.0 0.0 9.0
#pdf 21 21 6.624805e-01 2.417034e-01 5000.0 2.214184e-04 7.401394e-02
</event>
<event>
4 6 1.0 5000.0 7.905138e-03 7.739137e-02
21 -1 0 0 103 101  0.000000e+00  0.000000e+00  4.598956e+03  4.598956e+03 0.0 0.0 9.0
21 -1 0 0 101 102  0.000000e+00  0.000000e+00 -1.536705e+03  1.536705e+03 0.0 0.0 9.0
22  1 1 2   0   0  2.397210e+03  7.413813e+02  5.178516e+02  2.562115e+03 0.0 0.0 9.0
21  1 1 2 103 102 -2.397210e+03 -7.413813e+02  2.544400e+03  3.573546e+03 0.0 0.0 9.0
#pdf 21 21 7.075317e-01 2.364161e-01 5000.0 9.291012e-05 7.906971e-02
</event>
<event>
4 6 1.0 5000.0 7.905138e-03 7.739137e-02
21 -1 0 0 103 101  0.000000e+00  0.000000e+00  3.077006e+03  3.077006e+03 0.0 0.0 9.0
21 -1 0 0 101 102  0.000000e+00  0.000000e+00 -2.136373e+03  2.136373e+03 0.0 0.0 9.0
21  1 1 2 103 102  1.391210e+03 -1.624692e+03  1.907602e+03  2.866014e+03 0.0 0.0 9.0
22  1 1 2   0   0 -1.391210e+03  1.624692e+03 -9.669693e+02  2.347365e+03 0.0 0.0 9.0
#pdf 21 21 4.733856e-01 3.286728e-01 5000.0 4.047462e-03 2.535482e-02
</event>
<event>
4 6 1.0 5000.0 7.905138e-03 7.739137e-02
21 -1 0 0 103 101  0.000000e+00  0.000000e+00  2.283472e+03  2.283472e+03 0.0 0.0 9.0
21 -1 0 0 101 102  0.000000e+00  0.000000e+00 -2.274989e+03  2.274989e+03 0.0 0.0 9.0
21  1 1 2 103 102  1.751745e+03 -1.375163e+03 -4.807212e+02  2.278328e+03 0.0 0.0 9.0
22  1 1 2   0   0 -1.751745e+03  1.375163e+03  4.892043e+02  2.280133e+03 0.0 0.0 9.0
#pdf 21 21 3.513034e-01 3.499983e-01 5000.0 1.920813e-02 1.952015e-02
</event>
<event>
4 6 1.0 5000.0 7.905138e-03 7.739137e-02
21 -1 0 0 103 101  0.000000e+00  0.000000e+00  2.968326e+03  2.968326e+03 0.0 0.0 9.0
21 -1 0 0 101 102  0.000000e+00  0.000000e+00 -2.024274e+03  2.024274e+03 0.0 0.0 9.0
21  1 1 2 103 102  1.284084e+03  8.884824e+02 -1.452247e+03  2.132439e+03 0.0 0.0 9.0
22  1 1 2   0   0 -1.284084e+03 -8.884824e+02  2.396299e+03  2.860161e+03 0.0 0.0 9.0
#pdf 21 21 4.566655e-01 3.114268e-01 5000.0 5.055181e-03 3.133791e-02
</event>
<event>
4 6 1.0 5000.0 7.905138e-03 7.739137e-02
21 -1 0 0 101 102  0.000000e+00  0.000000e+00  1.955480e+03  1.955480e+03 0.0 0.0 9.0
21 -1 0 0 103 101  0.000000e+00  0.000000e+00 -3.278582e+03  3.278582e+03 0.0 0.0 9.0
21  1 1 2 103 102 -4.431908e+02  2.158084e+03  6.283217e+02  2.290968e+03 0.0 0.0 9.0
22  1 1 2   0   0  4.431908e+02 -2.158084e+03 -1.951424e+03  2.943094e+03 0.0 0.0 9.0
#pdf 21 21 3.008430e-01 5.043972e-01 5000.0 3.564496e-02 2.651790e-03
</event>
<event>
4 6 1.0 5000.0 7.905138e-03 7.739137e-02
21 -1 0 0 103 101  0.000000e+00  0.000000e+00  4.323230e+03  4.323230e+03 0.0 0.0 9.0
21 -1 0 0 101 102  0.000000e+00  0.000000e+00 -1.404420e+03  1.404420e+03 0.0 0.0 9.0
22  1 1 2   0   0 -1.769459e+02 -1.342286e+03  3.852194e+03  4.083190e+03 0.0 0.0 9.0
21  1 1 2 103 102  1.769459e+02  1.342286e+03 -9.333837e+02  1.644460e+03 0.0 0.0 9.0
#pdf 21 21 6.651123e-01 2.160646e-01 5000.0 2.107415e-04 1.023039e-01
</event>
<event>
4 6 1.0 5000.0 7.905138e-03 7.739137e-02
21 -1 0 0 103 101  0.000000e+00  0.000000e+00  3.398880e+03  3.398880e+03 0.0 0.0 9.0
21 -1 0 0 101 102  0.000000e+00  0.000000e+00 -1.854413e+03  1.854413e+03 0.0 0.0 9.0
22  1 1 2   0   0 -1.527689e+03  1.728975e+03  1.807817e+03  2.931108e+03 0.0 0.0 9.0
21  1 1 2 103 102  1.527689e+03 -1.728975e+03 -2.633500e+02  2.322185e+03 0.0 0.0 9.0
#pdf 21 21 5.229046e-01 2.852943e-01 5000.0 2.045934e-03 4.312959e-02
</event>
<event>
4 6 1.0 5000.0 7.905138e-03 7.739137e-02
21 -1 0 0 103 101  0.000000e+00  0.000000e+00  2.220668e+03  2.220668e+03 0.0 0.0 9.0
21 -1 0 0 101 102  0.000000e+00  0.000000e+00 -3.311682e+03  3.311682e+03 0.0 0.0 9.0
22  1 1 2   0   0 -1.392051e+03 -6.719461e+02 -2.818330e+03  3.214389e+03 0.0 0.0 9.0
21  1 1 2 103 102  1.392051e+03  6.719461e+02  1.727316e+03  2.317960e+03 0.0 0.0 9.0
#pdf 21 21 3.416412e-01 5.094895e-01 5000.0 2.162421e-02 2.470926e-03
</event>
<event>
4 6 1.0 5000.0 7.905138e-03 7.739137e-02
21 -1 0 0 103 101  0.000000e+00  0.000000e+00  1.812894e+03  1.812894e+03 0.0 0.0 9.0
21 -1 0 0 101 102  0.000000e+00  0.000000e+00 -3.310705e+03  3.310705e+03 0.0 0.0 9.0
22  1 1 2   0   0  1.653952e+03  1.376100e+03  4.762573e+02  2.203640e+03 0.0 0.0 9.0
21  1 1 2 103 102 -1.653952e+03 -1.376100e+03 -1.974068e+03  2.919958e+03 0.0 0.0 9.0
#pdf 21 21 2.789067e-01 5.093392e-01 5000.0 4.664864e-02 2.476095e-03
</event>
<event>
4 6 1.0 5000.0 7.905138e-03 7.739137e-02
21 -1 0 0 101 102  0.000000e+00  0.000000e+00  2.216259e+03  2.216259e+03 0.0 0.0 9.0
21 -1 0 0 103 101  0.000000e+00  0.000000e+00 -2.735423e+03  2.735423e+03 0.0 0.0 9.0
21  1 1 2 103 102 -2.505089e+02  2.448440e+03 -1.899870e+02  2.468544e+03 0.0 0.0 9.0
22  1 1 2   0   0  2.505089e+02 -2.448440e+03 -3.291779e+02  2.483138e+03 0.0 0.0 9.0
#pdf 21 21 3.409628e-01 4.208344e-01 5000.0 2.180438e-02 8.044188e-03
</event>
<event>
4 6 1.0 5000.0 7.905138e-03 7.739137e-02
21 -1 0 0 103 101  0.000000e+00  0.000000e+00  1.662581e+03  1.662581e+03 0.0 0.0 9.0
21 -1 0 0 101 102  0.000000e+00  0.000000e+00 -2.892773e+03  2.892773e+03 0.0 0.0 9.0
22  1 1 2   0   0  2.169033e+03  9.315666e+01 -9.370347e+02  2.364618e+03 0.0 0.0 9.0
21  1 1 2 103 102 -2.169033e+03 -9.315666e+01 -2.931570e+02  2.190736e+03 0.0 0.0 9.0
#pdf 21 21 2.557817e-01 4.450419e-01 5000.0 6.210694e-02 5.884458e-03
</event>
<event>
4 6 1.0 5000.0 7.905138e-03 7.739137e-02
21 -1 0 0 103 101  0.000000e+00  0.000000e+00  2.713792e+03  2.713792e+03 0.0 0.0 9.0
21 -1 0 0 101 102  0.000000e+00  0.000000e+00 -2.559030e+03  2.559030e+03 0.0 0.0 9.0
22  1 1 2   0   0  1.489831e+02  1.949771e+03  1.844742e+03  2.688285e+03 0.0 0.0 9.0
21  1 1 2 103 102 -1.489831e+02 -1.949771e+03 -1.689979e+03  2.584537e+03 0.0 0.0 9.0
#pdf 21 21 4.175065e-01 3.936969e-01 5000.0 8.392740e-03 1.134358e-02
</event>
<event>
4 6 1.0 5000.0 7.905138e-03 7.739137e-02
21 -1 0 0 103 101  0.000000e+00  0.000000e+00  2.682618e+03  2.682618e+03 0.0 0.0 9.0
21 -1 0 0 101 102  0.000000e+00  0.000000e+00 -2.404553e+03  2.404553e+03 0.0 0.0 9.0
21  1 1 2 103 102 -2.071545e+03 -3.047921e+02 -1.300583e+03  2.464896e+03 0.0 0.0 9.0
22  1 1 2   0   0  2.071545e+03  3.047921e+02  1.578648e+03  2.622275e+03 0.0 0.0 9.0
#pdf 21 21 4.127104e-01 3.699312e-01 5000.0 8.920706e-03 1.524874e-02
</event>
<event>
4 6 1.0 5000.0 7.905138e-03 7.739137e-02
21 -1 0 0 103 101  0.000000e+00  0.000000e+00  1.773139e+03  1.773139e+03 0.0 0.0 9.0
21 -1 0 0 101 102  0.000000e+00  0.000000e+00 -3.466363e+03  3.466363e+03 0.0 0.0 9.0
22  1 1 2   0   0 -1.301473e+03  1.311257e+03  9.003395e+02  2.055198e+03 0.0 0.0 9.0
21  1 1 2 103 102  1.301473e+03 -1.311257e+03 -2.593564e+03  3.184305e+03 0.0 0.0 9.0
#pdf 21 21 2.727906e-01 5.332867e-01 5000.0 5.029033e-02 1.764562e-03
</event>
<event>
4 6 1.0 5000.0 7.905138e-03 7.739137e-02
21 -1 0 0 101 102  0.000000e+00  0.000000e+00  2.214130e+03  2.214130e+03 0.0 0.0 9.0
21 -1 0 0 103 101  0.000000e+00  0.000000e+00 -2.864049e+03  2.864049e+03 0.0 0.0 9.0
22  1 1 2   0   0  5.600110e+01 -1.073516e+03 -2.621078e+03  2.832953e+03 0.0 0.0 9.0
21  1 1 2 103 102 -5.600110e+01  1.073516e+03  1.971159e+03  2.245226e+03 0.0 0.0 9.0
#pdf 21 21 3.406354e-01 4.406230e-01 5000.0 2.189194e-02 6.239715e-03
</event>
<event>
4 6 1.0 5000.0 7.905138e-03 7.739137e-02
21 -1 0 0 101 102  0.000000e+00  0.000000e+00  2.594279e+03  2.594279e+03 0.0 0.0 9.0
21 -1 0 0 103 101  0.000000e+00  0.000000e+00 -2.468667e+03  2.468667e+03 0.0 0.0 9.0
22  1 1 2   0   0  6.621008e+02 -1.323808e+03 -1.990524e+03  2.480530e+03 0.0 0.0 9.0
21  1 1 2 103 102 -6.621008e+02  1.323808e+03  2.116135e+03  2.582416e+03 0.0 0.0 9.0
#pdf 21 21 3.991198e-01 3.797950e-01 5000.0 1.059643e-02 1.351026e-02
</event>
<event>
4 6 1.0 5000.0 7.905138e-03 7.739137e-02
21 -1 0 0 103 101  0.000000e+00  0.000000e+00  3.420551e+03  3.420551e+03 0.0 0.0 9.0
21 -1 0 0 101 102  0.000000e+00  0.000000e+00 -1.807054e+03  1.807054e+03 0.0 0.0 9.0
21  1 1 2 103 102  5.918404e+02 -4.299972e+02  3.304836e+03  3.384836e+03 0.0 0.0 9.0
22  1 1 2   0   0 -5.918404e+02  4.299972e+02 -1.691339e+03  1.842769e+03 0.0 0.0 9.0
#pdf 21 21 5.262387e-01 2.780083e-01 5000.0 1.951740e-03 4.716715e-02
</event>
<event>
4 6 1.0 5000.0 7.905138e-03 7.739137e-02
21 -1 0 0 101 102  0.000000e+00  0.000000e+00  2.031755e+03  2.031755e+03 0.0 0.0 9.0
21 -1 0 0 103 101  0.000000e+00  0.000000e+00 -2.901124e+03  2.901124e+03 0.0 0.0 9.0
21  1 1 2 103 102  2.043779e+03  8.134705e+02 -1.478450e+03  2.650393e+03 0.0 0.0 9.0
22  1 1 2   0   0 -2.043779e+03 -8.134705e+02  6.090813e+02  2.282487e+03 0.0 0.0 9.0
#pdf 21 21 3.125777e-01 4.463268e-01 5000.0 3.089438e-02 5.784469e-03
</event>
<event>
4 6 1.0 5000.0 7.905138e-03 7.739137e-02
21 -1 0 0 103 101  0.000000e+00  0.000000e+00  3.590114e+03  3.590114e+03 0.0 0.0 9.0
21 -1 0 0 101 102  0.000000e+00  0.000000e+00 -1.676471e+03  1.676471e+03 0.0 0.0 9.0
21  1 1 2 103 102 -1.235938e+03 -1.143621e+03  2.871899e+03  3.329147e+03 0.0 0.0 9.0
22  1 1 2   0   0  1.235938e+03  1.143621e+03 -9.582566e+02  1.937438e+03 0.0 0.0 9.0
#pdf 21 21 5.523252e-01 2.579186e-01 5000.0 1.334933e-03 6.046504e-02
</event>
<event>
4 6 1.0 5000.0 7.905138e-03 7.739137e-02
21 -1 0 0 103 101  0.000000e+00  0.000000e+00  2.496628e+03  2.496628e+03 0.0 0.0 9.0
21 -1 0 0 101 102  0.000000e+00  0.000000e+00 -1.795185e+03  1.795185e+03 0.0 0.0 9.0
21  1 1 2 103 102 -1.901999e+02 -2.004067e+03  1.014976e+03  2.254471e+03 0.0 0.0 9.0
22  1 1 2   0   0  1.901999e+02  2.004067e+03 -3.135337e+02  2.037343e+03 0.0 0.0 9.0
#pdf 21 21 3.840966e-01 2.761824e-01 5000.0 1.280156e-02 4.823788e-02
</event>
<event>
4 6 1.0 5000.0 7.905138e-03 7.739137e-02
21 -1 0 0 103 101  0.000000e+00  0.000000e+00  2.164500e+03  2.164500e+03 0.0 0.0 9.0
21 -1 0 0 101 102  0.000000e+00  0.000000e+00 -2.321681e+03  2.321681e+03 0.0 0.0 9.0
22  1 1 2   0   0  7.657656e+01 -2.045101e+03  8.368358e+02  2.211017e+03 0.0 0.0 9.0
21  1 1 2 103 102 -7.657656e+01  2.045101e+03 -9.940169e+02  2.275164e+03 0.0 0.0 9.0
#pdf 21 21 3.330000e-01 3.571817e-01 5000.0 2.404545e-02 1.785542e-02
</event>
<event>
4 6 1.0 5000.0 7.905138e-03 7.739137e-02
21 -1 0 0 101 102  0.000000e+00  0.000000e+00  3.087608e+03  3.087608e+03 0.0 0.0 9.0
21 -1 0 0 103 101  0.000000e+00  0.000000e+00 -2.005251e+03  2.005251e+03 0.0 0.0 9.0
21  1 1 2 103 102 -1.115993e+03  4.313243e+02 -1.691557e+03  2.071919e+03 0.0 0.0 9.0
22  1 1 2   0   0  1.115993e+03 -4.313243e+02  2.773914e+03  3.020941e+03 0.0 0.0 9.0
#pdf 21 21 4.750167e-01 3.085002e-01 5000.0 3.959844e-03 3.249118e-02
</event>
<event>
4 6 1.0 5000.0 7.905138e-03 7.739137e-02
21 -1 0 0 101 102  0.000000e+00  0.000000e+00  2.479099e+03  2.479099e+03 0.0 0.0 9.0
21 -1 0 0 103 101  0.000000e+00  0.000000e+00 -1.772564e+03  1.772564e+03 0.0 0.0 9.0
22  1 1 2   0   0  3.502598e+01  1.588517e+03  1.739936e+03  2.356266e+03 0.0 0.0 9.0
21  1 1 2 103 102 -3.502598e+01 -1.588517e+03 -1.033401e+03  1.895397e+03 0.0 0.0 9.0
#pdf 21 21 3.813999e-01 2.727021e-01 5000.0 1.324224e-02 5.034508e-02
</event>
<event>
4 6 1.0 5000.0 7.905138e-03 7.739137e-02
21 -1 0 0 103 101  0.000000e+00  0.000000e+00  2.226892e+03  2.226892e+03 0.0 0.0 9.0
21 -1 0 0 101 102  0.000000e+00  0.000000e+00 -2.587653e+03  2.587653e+03 0.0 0.0 9.0
22  1 1 2   0   0 -5.055667e+02 -2.156223e+03 -1.109020e+03  2.476857e+03 0.0 0.0 9.0
21  1 1 2 103 102  5.055667e+02  2.156223e+03  7.482592e+02  2.337688e+03 0.0 0.0 9.0
#pdf 21 21 3.425988e-01 3.981004e-01 5000.0 2.137251e-02 1.073307e-02
</event>
<event>
4 6 1.0 5000.0 7.905138e-03 7.739137e-02
21 -1 0 0 101 102  0.000000e+00  0.000000e+00  3.755703e+03  3.755703e+03 0.0 0.0 9.0
21 -1 0 0 103 101  0.000000e+00  0.000000e+00 -1.572793e+03  1.572793e+03 0.0 0.0 9.0
22  1 1 2   0   0 -1.455408e+03 -1.902516e+03  1.542322e+03  2.848954e+03 0.0 0.0 9.0
21  1 1 2 103 102  1.455408e+03  1.902516e+03  6.405886e+02  2.479543e+03 0.0 0.0 9.0
#pdf 21 21 5.778005e-01 2.419682e-01 5000.0 9.090438e-04 7.376642e-02
</event>
<event>
4 6 1.0 5000.0 7.905138e-03 7.739137e-02
21 -1 0 0 101 102  0.000000e+00  0.000000e+00  3.062409e+03  3.062409e+03 0.0 0.0 9.0
21 -1 0 0 103 101  0.000000e+00  0.000000e+00 -2.065992e+03  2.065992e+03 0.0 0.0 9.0
21  1 1 2 103 102  2.040623e+03  9.625507e+02  1.631684e+03  2.784428e+03 0.0 0.0 9.0
22  1 1 2   0   0 -2.040623e+03 -9.625507e+02 -6.352673e+02  2.343973e+03 0.0 0.0 9.0
#pdf 21 21 4.711399e-01 3.178450e-01 5000.0 4.170882e-03 2.894788e-02
</event>
<event>
4 6 1.0 5000.0 7.905138e-03 7.739137e-02
21 -1 0 0 103 101  0.000000e+00  0.000000e+00  2.994626e+03  2.994626e+03 0.0 0.0 9.0
21 -1 0 0 101 102  0.000000e+00  0.000000e+00 -2.013183e+03  2.013183e+03 0.0 0.0 9.0
22  1 1 2   0   0 -6.729608e+02 -1.896474e+03  1.925397e+03  2.785076e+03 0.0 0.0 9.0
21  1 1 2 103 102  6.729608e+02  1.896474e+03 -9.439542e+02  2.222733e+03 0.0 0.0 9.0
#pdf 21 21 4.607117e-01 3.097204e-01 5000.0 4.789901e-03 3.200611e-02
</event>
<event>
4 6 1.0 5000.0 7.905138e-03 7.739137e-02
21 -1 0 0 103 101  0.000000e+00  0.000000e+00  1.916612e+03  1.916612e+03 0.0 0.0 9.0
21 -1 0 0 101 102  0.000000e+00  0.000000e+00 -3.431461e+03  3.431461e+03 0.0 0.0 9.0
22  1 1 2   0   0 -1.168617e+03  2.252331e+03 -1.144936e+03  2.783800e+03 0.0 0.0 9.0
21  1 1 2 103 102  1.168617e+03 -2.252331e+03 -3.699138e+02  2.564274e+03 0.0 0.0 9.0
#pdf 21 21 2.948634e-01 5.279171e-01 5000.0 3.839745e-02 1.905820e-03
</event>
<event>
4 6 1.0 5000.0 7.905138e-03 7.739137e-02
21 -1 0 0 103 101  0.000000e+00  0.000000e+00  2.485319e+03  2.485319e+03 0.0 0.0 9.0
21 -1 0 0 101 102  0.000000e+00  0.000000e+00 -1.750046e+03  1.750046e+03 0.0 0.0 9.0
21  1 1 2 103 102  1.349529e+03 -7.197967e+02 -1.071999e+03  1.867757e+03 0.0 0.0 9.0
22  1 1 2   0   0 -1.349529e+03  7.197967e+02  1.807272e+03  2.367608e+03 0.0 0.0 9.0
#pdf 21 21 3.823568e-01 2.692379e-01 5000.0 1.308444e-02 5.253591e-02
</event>
<event>
4 6 1.0 5000.0 7.905138e-03 7.739137e-02
21 -1 0 0 103 101  0.000000e+00  0.000000e+00  1.608111e+03  1.608111e+03 0.0 0.0 9.0
21 -1 0 0 101 102  0.000000e+00  0.000000e+00 -2.914826e+03  2.914826e+03 0.0 0.0 9.0
22  1 1 2   0   0  1.003263e+03 -5.841071e+02 -2.562228e+03  2.812958e+03 0.0 0.0 9.0
21  1 1 2 103 102 -1.003263e+03  5.841071e+02  1.255513e+03  1.709980e+03 0.0 0.0 9.0
#pdf 21 21 2.474017e-01 4.484348e-01 5000.0 6.888896e-02 5.628906e-03
</event>
<event>
4 6 1.0 5000.0 7.905138e-03 7.739137e-02
21 -1 0 0 101 102  0.000000e+00  0.000000e+00  2.154276e+03  2.154276e+03 0.0 0.0 9.0
21 -1 0 0 103 101  0.000000e+00  0.000000e+00 -2.962967e+03  2.962967e+03 0.0 0.0 9.0
22  1 1 2   0   0 -1.102424e+03 -4.265767e+02  1.856947e+03  2.201263e+03 0.0 0.0 9.0
21  1 1 2 103 102  1.102424e+03  4.265767e+02 -2.665639e+03  2.915980e+03 0.0 0.0 9.0
#pdf 21 21 3.314270e-01 4.558411e-01 5000.0 2.451393e-02 5.110858e-03
</event>
<event>
4 6 1.0 5000.0 7.905138e-03 7.739137e-02
21 -1 0 0 103 101  0.000000e+00  0.000000e+00  1.740074e+03  1.740074e+03 0.0 0.0 9.0
21 -1 0 0 101 102  0.000000e+00  0.000000e+00 -3.254157e+03  3.254157e+03 0.0 0.0 9.0
21  1 1 2 103 102  1.109832e+03  1.760348e+03  4.540437e+02  2.129955e+03 0.0 0.0 9.0
22  1 1 2   0   0 -1.109832e+03 -1.760348e+03 -1.968127e+03  2.864276e+03 0.0 0.0 9.0
#pdf 21 21 2.677037e-01 5.006396e-01 5000.0 5.353811e-02 2.793477e-03
</event>
<event>
4 6 1.0 5000.0 7.905138e-03 7.739137e-02
21 -1 0 0 103 101  0.000000e+00  0.000000e+00  2.482107e+03  2.482107e+03 0.0 0.0 9.0
21 -1 0 0 101 102  0.000000e+00  0.000000e+00 -2.440279e+03  2.440279e+03 0.0 0.0 9.0
22  1 1 2   0   0 -6.925538e+02 -2.109119e+03 -1.041679e+03  2.452164e+03 0.0 0.0 9.0
21  1 1 2 103 102  6.925538e+02  2.109119e+03  1.083506e+03  2.470222e+03 0.0 0.0 9.0
#pdf 21 21 3.818626e-01 3.754276e-01 5000.0 1.316575e-02 1.425944e-02
</event>
<event>
4 6 1.0 5000.0 7.905138e-03 7.739137e-02
21 -1 0 0 103 101  0.000000e+00  0.000000e+00  2.441754e+03  2.441754e+03 0.0 0.0 9.0
21 -1 0 0 101 102  0.000000e+00  0.000000e+00 -2.464597e+03  2.464597e+03 0.0 0.0 9.0
22  1 1 2   0   0  7.151046e+02 -1.494850e+03 -1.820305e+03  2.461598e+03 0.0 0.0 9.0
21  1 1 2 103 102 -7.151046e+02  1.494850e+03  1.797462e+03  2.444754e+03 0.0 0.0 9.0
#pdf 21 21 3.756544e-01 3.791688e-01 5000.0 1.421986e-02 1.361594e-02
</event>
<event>
4 6 1.0 5000.0 7.905138e-03 7.739137e-02
21 -1 0 0 103 101  0.000000e+00  0.000000e+00  2.604118e+03  2.604118e+03 0.0 0.0 9.0
21 -1 0 0 101 102  0.000000e+00  0.000000e+00 -2.849967e+03  2.849967e+03 0.0 0.0 9.0
22  1 1 2   0   0 -1.893933e+03  3.075896e+02  1.812967e+03  2.639780e+03 0.0 0.0 9.0
21  1 1 2 103 102  1.893933e+03 -3.075896e+02 -2.058815e+03  2.814305e+03 0.0 0.0 9.0
#pdf 21 21 4.006336e-01 4.384564e-01 5000.0 1.039658e-02 6.417573e-03
</event>
<event>
4 6 1.0 5000.0 7.905138e-03 7.739137e-02
21 -1 0 0 101 102  0.000000e+00  0.000000e+00  2.505383e+03  2.505383e+03 0.0 0.0 9.0
21 -1 0 0 103 101  0.000000e+00  0.000000e+00 -2.300673e+03  2.300673e+03 0.0 0.0 9.0
21  1 1 2 103 102  5.477063e+02  1.449554e+03  1.937836e+03  2.481209e+03 0.0 0.0 9.0
22  1 1 2   0   0 -5.477063e+02 -1.449554e+03 -1.733126e+03  2.324847e+03 0.0 0.0 9.0
#pdf 21 21 3.854436e-01 3.539497e-01 5000.0 1.258626e-02 1.858662e-02
</event>
<event>
4 6 1.0 5000.0 7.905138e-03 7.739137e-02
21 -1 0 0 103 101  0.000000e+00  0.000000e+00  2.291209e+03  2.291209e+03 0.0 0.0 9.0
21 -1 0 0 101 102  0.000000e+00  0.000000e+00 -2.702707e+03  2.702707e+03 0.0 0.0 9.0
21  1 1 2 103 102 -2.158556e+03  6.147133e+02 -1.284232e+03  2.585825e+03 0.0 0.0 9.0
22  1 1 2   0   0  2.158556e+03 -6.147133e+02  8.727337e+02  2.408091e+03 0.0 0.0 9.0
#pdf 21 21 3.524937e-01 4.158011e-01 5000.0 1.892682e-02 8.576854e-03
</event>
<event>
4 6 1.0 5000.0 7.905138e-03 7.739137e-02
21 -1 0 0 101 102  0.000000e+00  0.000000e+00  2.175742e+03  2.175742e+03 0.0 0.0 9.0
21 -1 0 0 103 101  0.000000e+00  0.000000e+00 -2.629166e+03  2.629166e+03 0.0 0.0 9.0
21  1 1 2 103 102  1.055919e+03 -8.941310e+02  1.732918e+03  2.217530e+03 0.0 0.0 9.0
22  1 1 2   0   0 -1.055919e+03  8.941310e+02 -2.186342e+03  2.587378e+03 0.0 0.0 9.0
#pdf 21 21 3.347296e-01 4.044871e-01 5000.0 2.353970e-02 9.903490e-03
</event>
<event>
4 6 1.0 5000.0 7.905138e-03 7.739137e-02
21 -1 0 0 103 101  0.000000e+00  0.000000e+00  4.020125e+03  4.020125e+03 0.0 0.0 9.0
21 -1 0 0 101 102  0.000000e+00  0.000000e+00 -1.604245e+03  1.604245e+03 0.0 0.0 9.0
22  1 1 2   0   0 -2.953050e+02 -1.960702e+03 -5.491398e+02  2.057453e+03 0.0 0.0 9.0
21  1 1 2 103 102  2.953050e+02  1.960702e+03  2.965019e+03  3.566917e+03 0.0 0.0 9.0
#pdf 21 21 6.184808e-01 2.468070e-01 5000.0 4.752063e-04 6.938646e-02
</event>
<event>
4 6 1.0 5000.0 7.905138e-03 7.739137e-02
21 -1 0 0 103 101  0.000000e+00  0.000000e+00  2.217137e+03  2.217137e+03 0.0 0.0 9.0
21 -1 0 0 101 102  0.000000e+00  0.000000e+00 -2.364151e+03  2.364151e+03 0.0 0.0 9.0
22  1 1 2   0   0  1.568852e+03 -1.077434e+03 -1.346754e+03  2.331502e+03 0.0 0.0 9.0
21  1 1 2 103 102 -1.568852e+03  1.077434e+03  1.199739e+03  2.249785e+03 0.0 0.0 9.0
#pdf 21 21 3.410979e-01 3.637155e-01 5000.0 2.176838e-02 1.648024e-02
</event>
<event>
4 6 1.0 5000.0 7.905138e-03 7.739137e-02
21 -1 0 0 101 102  0.000000e+00  0.000000e+00  2.639268e+03  2.639268e+03 0.0 0.0 9.0
21 -1 0 0 103 101  0.000000e+00  0.000000e+00 -2.398155e+03  2.398155e+03 0.0 0.0 9.0
22  1 1 2   0   0 -2.902417e+01  1.097751e+03 -2.145550e+03  2.410245e+03 0.0 0.0 9.0
21  1 1 2 103 102  2.902417e+01 -1.097751e+03  2.386663e+03  2.627178e+03 0.0 0.0 9.0
#pdf 21 21 4.060413e-01 3.689469e-01 5000.0 9.710594e-03 1.543728e-02
</event>
<event>
4 6 1.0 5000.0 7.905138e-03 7.739137e-02
21 -1 0 0 103 101  0.000000e+00  0.000000e+00  3.251462e+03  3.251462e+03 0.0 0.0 9.0
21 -1 0 0 101 102  0.000000e+00  0.000000e+00 -1.970251e+03  1.970251e+03 0.0 0.0 9.0
21  1 1 2 103 102 -5.107884e+02 -5.713717e+02  3.128893e+03  3.221388e+03 0.0 0.0 9.0
22  1 1 2   0   0  5.107884e+02  5.713717e+02 -1.847682e+03  2.000325e+03 0.0 0.0 9.0
#pdf 21 21 5.002249e-01 3.031155e-01 5000.0 2.809578e-03 3.469251e-02
</event>
<event>
4 6 1.0 5000.0 7.905138e-03 7.739137e-02
21 -1 0 0 101 102  0.000000e+00  0.000000e+00  4.595568e+03  4.595568e+03 0.0 0.0 9.0
21 -1 0 0 103 101  0.000000e+00  0.000000e+00 -1.422802e+03  1.422802e+03 0.0 0.0 9.0
21  1 1 2 103 102 -6.574498e+02 -2.170935e+03  1.972535e+02  2.276864e+03 0.0 0.0 9.0
22  1 1 2   0   0  6.574498e+02  2.170935e+03  2.975512e+03  3.741506e+03 0.0 0.0 9.0
#pdf 21 21 7.070104e-01 2.188927e-01 5000.0 9.389843e-05 9.866644e-02
</event>
<event>
4 6 1.0 5000.0 7.905138e-03 7.739137e-02
21 -1 0 0 101 102  0.000000e+00  0.000000e+00  2.700926e+03  2.700926e+03 0.0 0.0 9.0
21 -1 0 0 103 101  0.000000e+00  0.000000e+00 -2.258405e+03  2.258405e+03 0.0 0.0 9.0
22  1 1 2   0   0 -4.619365e+02  2.405550e+03 -9.580063e+01  2.451374e+03 0.0 0.0 9.0
21  1 1 2 103 102  4.619365e+02 -2.405550e+03  5.383223e+02  2.507957e+03 0.0 0.0 9.0
#pdf 21 21 4.155271e-01 3.474469e-01 5000.0 8.606794e-03 2.014190e-02
</event>
<event>
4 6 1.0 5000.0 7.905138e-03 7.739137e-02
21 -1 0 0 101 102  0.000000e+00  0.000000e+00  5.373077e+03  5.373077e+03 0.0 0.0 9.0
21 -1 0 0 103 101  0.000000e+00  0.000000e+00 -1.194613e+03  1.194613e+03 0.0 0.0 9.0
22  1 1 2   0   0  1.300115e+03  2.184074e+02  4.893471e+03  5.067944e+03 0.0 0.0 9.0
21  1 1 2 103 102 -1.300115e+03 -2.184074e+02 -7.150076e+02  1.499746e+03 0.0 0.0 9.0
#pdf 21 21 8.266272e-01 1.837867e-01 5000.0 4.573468e-06 1.559902e-01
</event>
<event>
4 6 1.0 5000.0 7.905138e-03 7.739137e-02
21 -1 0 0 101 102  0.000000e+00  0.000000e+00  1.666197e+03  1.666197e+03 0.0 0.0 9.0
21 -1 0 0 103 101  0.000000e+00  0.000000e+00 -3.583098e+03  3.583098e+03 0.0 0.0 9.0
21  1 1 2 103 102  1.226914e+03 -1.423413e+03  7.190382e+02  2.012074e+03 0.0 0.0 9.0
22  1 1 2   0   0 -1.226914e+03  1.423413e+03 -2.635940e+03  3.237221e+03 0.0 0.0 9.0
#pdf 21 21 2.563380e-01 5.512459e-01 5000.0 6.167552e-02 1.356311e-03
</event>
<event>
4 6 1.0 5000.0 7.905138e-03 7.739137e-02
21 -1 0 0 101 102  0.000000e+00  0.000000e+00  1.414079e+03  1.414079e+03 0.0 0.0 9.0
21 -1 0 0 103 101  0.000000e+00  0.000000e+00 -4.247944e+03  4.247944e+03 0.0 0.0 9.0
22  1 1 2   0   0  6.663953e+01 -1.980701e+03 -3.082549e+03  3.664659e+03 0.0 0.0 9.0
21  1 1 2 103 102 -6.663953e+01  1.980701e+03  2.486836e+02  1.997364e+03 0.0 0.0 9.0
#pdf 21 21 2.175506e-01 6.535298e-01 5000.0 1.003770e-01 2.603739e-04
</event>
<event>
4 6 1.0 5000.0 7.905138e-03 7.739137e-02
21 -1 0 0 101 102  0.000000e+00  0.000000e+00  2.674226e+03  2.674226e+03 0.0 0.0 9.0
21 -1 0 0 103 101  0.000000e+00  0.000000e+00 -2.351021e+03  2.351021e+03 0.0 0.0 9.0
21  1 1 2 103 102 -4.349613e+02  2.229387e+03  1.225786e+03  2.581068e+03 0.0 0.0 9.0
22  1 1 2   0   0  4.349613e+02 -2.229387e+03 -9.025814e+02  2.444179e+03 0.0 0.0 9.0
#pdf 21 21 4.114194e-01 3.616955e-01 5000.0 9.068440e-03 1.689416e-02
</event>
<event>
4 6 1.0 5000.0 7.905138e-03 7.739137e-02
21 -1 0 0 101 102  0.000000e+00  0.000000e+00  1.877730e+03  1.877730e+03 0.0 0.0 9.0
21 -1 0 0 103 101  0.000000e+00  0.000000e+00 -3.404545e+03  3.404545e+03 0.0 0.0 9.0
22  1 1 2   0   0  5.306381e+02  1.583198e+03  1.219859e+03  2.067885e+03 0.0 0.0 9.0
21  1 1 2 103 102 -5.306381e+02 -1.583198e+03 -2.746673e+03  3.214390e+03 0.0 0.0 9.0
#pdf 21 21 2.888816e-01 5.237761e-01 5000.0 4.129439e-02 2.020904e-03
</event>
<event>
4 6 1.0 5000.0 7.905138e-03 7.739137e-02
21 -1 0 0 103 101  0.000000e+00  0.000000e+00  1.831909e+03  1.831909e+03 0.0 0.0 9.0
21 -1 0 0 101 102  0.000000e+00  0.000000e+00 -3.275656e+03  3.275656e+03 0.0 0.0 9.0
22  1 1 2   0   0  1.908189e+03  2.629237e+02 -2.299621e+03  2.999762e+03 0.0 0.0 9.0
21  1 1 2 103 102 -1.908189e+03 -2.629237e+02  8.558735e+02  2.107803e+03 0.0 0.0 9.0
#pdf 21 21 2.818321e-01 5.039471e-01 5000.0 4.499650e-02 2.668374e-03
</event>
<event>
4 6 1.0 5000.0 7.905138e-03 7.739137e-02
21 -1 0 0 101 102  0.000000e+00  0.000000e+00  2.629033e+03  2.629033e+03 0.0 0.0 9.0
21 -1 0 0 103 101  0.000000e+00  0.000000e+00 -2.392065e+03  2.392065e+03 0.0 0.0 9.0
21  1 1 2 103 102  1.995347e+03 -1.515655e+03  1.738692e+01  2.505778e+03 0.0 0.0 9.0
22  1 1 2   0   0 -1.995347e+03  1.515655e+03  2.195813e+02  2.515320e+03 0.0 0.0 9.0
#pdf 21 21 4.044666e-01 3.680100e-01 5000.0 9.906052e-03 1.562018e-02
</event>
<event>
4 6 1.0 5000.0 7.905138e-03 7.739137e-02
21 -1 0 0 103 101  0.000000e+00  0.000000e+00  2.059706e+03  2.059706e+03 0.0 0.0 9.0
21 -1 0 0 101 102  0.000000e+00  0.000000e+00 -2.621514e+03  2.621514e+03 0.0 0.0 9.0
21  1 1 2 103 102 -4.515431e+02  5.413776e+02  1.949390e+03  2.072946e+03 0.0 0.0 9.0
22  1 1 2   0   0  4.515431e+02 -5.413776e+02 -2.511198e+03  2.608274e+03 0.0 0.0 9.0
#pdf 21 21 3.168779e-01 4.033098e-01 5000.0 2.929424e-02 1.005184e-02
</event>
<event>
4 6 1.0 5000.0 7.905138e-03 7.739137e-02
21 -1 0 0 101 102  0.000000e+00  0.000000e+00  2.018576e+03  2.018576e+03 0.0 0.0 9.0
21 -1 0 0 103 101  0.000000e+00  0.000000e+00 -3.039391e+03  3.039391e+03 0.0 0.0 9.0
21  1 1 2 103 102 -1.024941e+03 -1.105023e+03  1.496512e+03  2.123941e+03 0.0 0.0 9.0
22  1 1 2   0   0  1.024941e+03  1.105023e+03 -2.517326e+03  2.934026e+03 0.0 0.0 9.0
#pdf 21 21 3.105502e-01 4.675985e-01 5000.0 3.167964e-02 4.372271e-03
</event>
<event>
4 6 1.0 5000.0 7.905138e-03 7.739137e-02
21 -1 0 0 101 102  0.000000e+00  0.000000e+00  3.277702e+03  3.277702e+03 0.0 0.0 9.0
21 -1 0 0 103 101  0.000000e+00  0.000000e+00 -1.900482e+03  1.900482e+03 0.0 0.0 9.0
21  1 1 2 103 102 -5.501562e+02 -1.416415e+03 -1.365346e+03  2.042810e+03 0.0 0.0 9.0
22  1 1 2   0   0  5.501562e+02  1.416415e+03  2.742566e+03  3.135374e+03 0.0 0.0 9.0
#pdf 21 21 5.042618e-01 2.923818e-01 5000.0 2.656767e-03 3.957925e-02
</event>
<event>
4 6 1.0 5000.0 7.905138e-03 7.739137e-02
21 -1 0 0 103 101  0.000000e+00  0.000000e+00  2.806762e+03  2.806762e+03 0.0 0.0 9.0
21 -1 0 0 101 102  0.000000e+00  0.000000e+00 -1.969652e+03  1.969652e+03 0.0 0.0 9.0
22  1 1 2   0   0 -1.769558e+03 -1.039230e+03 -7.470966e+02  2.183916e+03 0.0 0.0 9.0
21  1 1 2 103 102  1.769558e+03  1.039230e+03  1.584207e+03  2.592498e+03 0.0 0.0 9.0
#pdf 21 21 4.318096e-01 3.030234e-01 5000.0 6.987502e-03 3.473092e-02
</event>
<event>
4 6 1.0 5000.0 7.905138e-03 7.739137e-02
21 -1 0 0 103 101  0.000000e+00  0.000000e+00  2.372503e+03  2.372503e+03 0.0 0.0 9.0
21 -1 0 0 101 102  0.000000e+00  0.000000e+00 -2.609363e+03  2.609363e+03 0.0 0.0 9.0
21  1 1 2 103 102 -2.250473e+03  8.690869e+02  4.911763e+02  2.461950e+03 0.0 0.0 9.0
22  1 1 2   0   0  2.250473e+03 -8.690869e+02 -7.280368e+02  2.519916e+03 0.0 0.0 9.0
#pdf 21 21 3.650004e-01 4.014405e-01 5000.0 1.622058e-02 1.029151e-02
</event>
<event>
4 6 1.0 5000.0 7.905138e-03 7.739137e-02
21 -1 0 0 103 101  0.000000e+00  0.000000e+00  3.047660e+03  3.047660e+03 0.0 0.0 9.0
21 -1 0 0 101 102  0.000000e+00  0.000000e+00 -2.005304e+03  2.005304e+03 0.0 0.0 9.0
22  1 1 2   0   0  2.305292e+03  8.473922e+02  8.084941e+02  2.585751e+03 0.0 0.0 9.0
21  1 1 2 103 102 -2.305292e+03 -8.473922e+02  2.338620e+02  2.467212e+03 0.0 0.0 9.0
#pdf 21 21 4.688707e-01 3.085082e-01 5000.0 4.298955e-03 3.248797e-02
</event>
<event>
4 6 1.0 5000.0 7.905138e-03 7.739137e-02
21 -1 0 0 101 102  0.000000e+00  0.000000e+00  2.738033e+03  2.738033e+03 0.0 0.0 9.0
21 -1 0 0 103 101  0.000000e+00  0.000000e+00 -2.734114e+03  2.734114e+03 0.0 0.0 9.0
21  1 1 2 103 102  1.200551e+03 -7.227730e+02  2.351933e+03  2.737757e+03 0.0 0.0 9.0
22  1 1 2   0   0 -1.200551e+03  7.227730e+02 -2.348014e+03  2.734391e+03 0.0 0.0 9.0
#pdf 21 21 4.212359e-01 4.206330e-01 5000.0 8.003044e-03 8.064894e-03
</event>
<event>
4 6 1.0 5000.0 7.905138e-03 7.739137e-02
21 -1 0 0 101 102  0.000000e+00  0.000000e+00  2.241880e+03  2.241880e+03 0.0 0.0 9.0
21 -1 0 0 103 101  0.000000e+00  0.000000e+00 -2.735934e+03  2.735934e+03 0.0 0.0 9.0
22  1 1 2   0   0 -1.660624e+03 -1.562434e+03 -1.218657e+03  2.585343e+03 0.0 0.0 9.0
21  1 1 2 103 102  1.660624e+03  1.562434e+03  7.246024e+02  2.392472e+03 0.0 0.0 9.0
#pdf 21 21 3.449046e-01 4.209130e-01 5000.0 2.077855e-02 8.036120e-03
</event>
<event>
4 6 1.0 5000.0 7.905138e-03 7.739137e-02
21 -1 0 0 101 102  0.000000e+00  0.000000e+00  1.954863e+03  1.954863e+03 0.0 0.0 9.0
21 -1 0 0 103 101  0.000000e+00  0.000000e+00 -3.448839e+03  3.448839e+03 0.0 0.0 9.0
22  1 1 2   0   0  8.318517e+02  6.354074e+02  1.725581e+03  2.018254e+03 0.0 0.0 9.0
21  1 1 2 103 102 -8.318517e+02 -6.354074e+02 -3.219556e+03  3.385449e+03 0.0 0.0 9.0
#pdf 21 21 3.007482e-01 5.305906e-01 5000.0 3.568496e-02 1.834498e-03
</event>
<event>
4 6 1.0 5000.0 7.905138e-03 7.739137e-02
21 -1 0 0 101 102  0.000000e+00  0.000000e+00  1.552098e+03  1.552098e+03 0.0 0.0 9.0
21 -1 0 0 103 101  0.000000e+00  0.000000e+00 -2.869194e+03  2.869194e+03 0.0 0.0 9.0
21  1 1 2 103 102  1.672253e+03 -1.285665e+03 -5.930606e+02  2.191138e+03 0.0 0.0 9.0
22  1 1 2   0   0 -1.672253e+03  1.285665e+03 -7.240354e+02  2.230155e+03 0.0 0.0 9.0
#pdf 21 21 2.387844e-01 4.414145e-01 5000.0 7.677487e-02 6.175437e-03
</event>
<event>
4 6 1.0 5000.0 7.905138e-03 7.739137e-02
21 -1 0 0 103 101  0.000000e+00  0.000000e+00  2.893853e+03  2.893853e+03 0.0 0.0 9.0
21 -1 0 0 101 102  0.000000e+00  0.000000e+00 -2.154188e+03  2.154188e+03 0.0 0.0 9.0
21  1 1 2 103 102 -8.915162e+02 -1.709378e+03  1.973690e+03  2.759026e+03 0.0 0.0 9.0
22  1 1 2   0   0  8.915162e+02  1.709378e+03 -1.234024e+03  2.289015e+03 0.0 0.0 9.0
#pdf 21 21 4.452082e-01 3.314135e-01 5000.0 5.871243e-03 2.451798e-02
</event>
<event>
4 6 1.0 5000.0 7.905138e-03 7.739137e-02
21 -1 0 0 101 102  0.000000e+00  0.000000e+00  2.219425e+03  2.219425e+03 0.0 0.0 9.0
21 -1 0 0 103 101  0.000000e+00  0.000000e+00 -2.790847e+03  2.790847e+03 0.0 0.0 9.0
21  1 1 2 103 102  1.536655e+03  1.824895e+03  4.278349e+02  2.423756e+03 0.0 0.0 9.0
22  1 1 2   0   0 -1.536655e+03 -1.824895e+03 -9.992565e+02  2.586516e+03 0.0 0.0 9.0
#pdf 21 21 3.414500e-01 4.293610e-01 5000.0 2.167483e-02 7.209806e-03
</event>
<event>
4 6 1.0 5000.0 7.905138e-03 7.739137e-02
21 -1 0 0 103 101  0.000000e+00  0.000000e+00  2.235141e+03  2.235141e+03 0.0 0.0 9.0
21 -1 0 0 101 102  0.000000e+00  0.000000e+00 -2.420276e+03  2.420276e+03 0.0 0.0 9.0
22  1 1 2   0   0  1.295225e+03 -8.397340e+02  1.648607e+03  2.258466e+03 0.0 0.0 9.0
21  1 1 2 103 102 -1.295225e+03  8.397340e+02 -1.833743e+03  2.396951e+03 0.0 0.0 9.0
#pdf 21 21 3.438678e-01 3.723502e-01 5000.0 2.104358e-02 1.480287e-02
</event>
<event>
4 6 1.0 5000.0 7.905138e-03 7.739137e-02
21 -1 0 0 103 101  0.000000e+00  0.000000e+00  2.163352e+03  2.163352e+03 0.0 0.0 9.0
21 -1 0 0 101 102  0.000000e+00  0.000000e+00 -2.863042e+03  2.863042e+03 0.0 0.0 9.0
21  1 1 2 103 102  1.679297e+01  1.101342e+03  1.903807e+03  2.199481e+03 0.0 0.0 9.0
22  1 1 2   0   0 -1.679297e+01 -1.101342e+03 -2.603497e+03  2.826912e+03 0.0 0.0 9.0
#pdf 21 21 3.328233e-01 4.404680e-01 5000.0 2.409765e-02 6.252344e-03
</event>
<event>
4 6 1.0 5000.0 7.905138e-03 7.739137e-02
21 -1 0 0 103 101  0.000000e+00  0.000000e+00  2.262192e+03  2.262192e+03 0.0 0.0 9.0
21 -1 0 0 101 102  0.000000e+00  0.000000e+00 -2.437270e+03  2.437270e+03 0.0 0.0 9.0
21  1 1 2 103 102 -9.005818e+02  2.018892e+03 -8.796709e+02  2.379242e+03 0.0 0.0 9.0
22  1 1 2   0   0  9.005818e+02 -2.018892e+03  7.045932e+02  2.320221e+03 0.0 0.0 9.0
#pdf 21 21 3.480296e-01 3.749646e-01 5000.0 1.999845e-02 1.434043e-02
</event>
<event>
4 6 1.0 5000.0 7.905138e-03 7.739137e-02
21 -1 0 0 101 102  0.000000e+00  0.000000e+00  2.122663e+03  2.122663e+03 0.0 0.0 9.0
21 -1 0 0 103 101  0.000000e+00  0.000000e+00 -2.959816e+03  2.959816e+03 0.0 0.0 9.0
21  1 1 2 103 102 -1.384248e+03  9.212737e+02 -2.320130e+03  2.854451e+03 0.0 0.0 9.0
22  1 1 2   0   0  1.384248e+03 -9.212737e+02  1.482978e+03  2.228028e+03 0.0 0.0 9.0
#pdf 21 21 3.265636e-01 4.553563e-01 5000.0 2.601744e-02 5.143825e-03
</event>
<event>
4 6 1.0 5000.0 7.905138e-03 7.739137e-02
21 -1 0 0 101 102  0.000000e+00  0.000000e+00  1.947127e+03  1.947127e+03 0.0 0.0 9.0
21 -1 0 0 103 101  0.000000e+00  0.000000e+00 -3.076015e+03  3.076015e+03 0.0 0.0 9.0
22  1 1 2   0   0  6.481951e+02  2.065712e+03  6.065940e+02  2.248395e+03 0.0 0.0 9.0
21  1 1 2 103 102 -6.481951e+02 -2.065712e+03 -1.735483e+03  2.774747e+03 0.0 0.0 9.0
#pdf 21 21 2.995580e-01 4.732331e-01 5000.0 3.621314e-02 4.055736e-03
</event>
<event>
4 6 1.0 5000.0 7.905138e-03 7.739137e-02
21 -1 0 0 101 102  0.000000e+00  0.000000e+00  1.850345e+03  1.850345e+03 0.0 0.0 9.0
21 -1 0 0 103 101  0.000000e+00  0.000000e+00 -3.119181e+03  3.119181e+03 0.0 0.0 9.0
22  1 1 2   0   0  1.293181e+03  1.224114e+03  1.033563e+03  2.058889e+03 0.0 0.0 9.0
21  1 1 2 103 102 -1.293181e+03 -1.224114e+03 -2.302398e+03  2.910637e+03 0.0 0.0 9.0
#pdf 21 21 2.846685e-01 4.798740e-01 5000.0 4.345943e-02 3.708685e-03
</event>
<event>
4 6 1.0 5000.0 7.905138e-03 7.739137e-02
21 -1 0 0 101 102  0.000000e+00  0.000000e+00  3.531368e+03  3.531368e+03 0.0 0.0 9.0
21 -1 0 0 103 101  0.000000e+00  0.000000e+00 -1.703664e+03  1.703664e+03 0.0 0.0 9.0
21  1 1 2 103 102  4.410620e+02 -2.412596e+03  8.783101e+02  2.605107e+03 0.0 0.0 9.0
22  1 1 2   0   0 -4.410620e+02  2.412596e+03  9.493941e+02  2.629925e+03 0.0 0.0 9.0
#pdf 21 21 5.432874e-01 2.621022e-01 5000.0 1.525555e-03 5.738104e-02
</event>
<event>
4 6 1.0 5000.0 7.905138e-03 7.739137e-02
21 -1 0 0 103 101  0.000000e+00  0.000000e+00  2.856835e+03  2.856835e+03 0.0 0.0 9.0
21 -1 0 0 101 102  0.000000e+00  0.000000e+00 -2.328099e+03  2.328099e+03 0.0 0.0 9.0
22  1 1 2   0   0  8.071160e+02 -1.976392e+03  1.718821e+03  2.740786e+03 0.0 0.0 9.0
21  1 1 2 103 102 -8.071160e+02  1.976392e+03 -1.190084e+03  2.444148e+03 0.0 0.0 9.0
#pdf 21 21 4.395131e-01 3.581690e-01 5000.0 6.330450e-03 1.763992e-02
</event>
<event>
4 6 1.0 5000.0 7.905138e-03 7.739137e-02
21 -1 0 0 101 102  0.000000e+00  0.000000e+00  2.608380e+03  2.608380e+03 0.0 0.0 9.0
21 -1 0 0 103 101  0.000000e+00  0.000000e+00 -2.760831e+03  2.760831e+03 0.0 0.0 9.0
22  1 1 2   0   0  1.444950e+03  1.313607e+03 -1.917580e+03  2.736888e+03 0.0 0.0 9.0
21  1 1 2 103 102 -1.444950e+03 -1.313607e+03  1.765129e+03  2.632323e+03 0.0 0.0 9.0
#pdf 21 21 4.012893e-01 4.247432e-01 5000.0 1.031112e-02 7.651446e-03
</event>
<event>
4 6 1.0 5000.0 7.905138e-03 7.739137e-02
21 -1 0 0 103 101  0.000000e+00  0.000000e+00  2.431087e+03  2.431087e+03 0.0 0.0 9.0
21 -1 0 0 101 102  0.000000e+00  0.000000e+00 -2.390291e+03  2.390291e+03 0.0 0.0 9.0
21  1 1 2 103 102 -1.043046e+03  1.775499e+03  1.273704e+03  2.421294e+03 0.0 0.0 9.0
22  1 1 2   0   0  1.043046e+03 -1.775499e+03 -1.232908e+03  2.400084e+03 0.0 0.0 9.0
#pdf 21 21 3.740135e-01 3.677370e-01 5000.0 1.450769e-02 1.567407e-02
</event>
<event>
4 6 1.0 5000.0 7.905138e-03 7.739137e-02
21 -1 0 0 101 102  0.000000e+00  0.000000e+00  2.686331e+03  2.686331e+03 0.0 0.0 9.0
21 -1 0 0 103 101  0.000000e+00  0.000000e+00 -2.189267e+03  2.189267e+03 0.0 0.0 9.0
21  1 1 2 103 102 -2.162422e+03 -4.508121e+02  1.254673e+03  2.540374e+03 0.0 0.0 9.0
22  1 1 2   0   0  2.162422e+03  4.508121e+02 -7.576082e+02  2.335224e+03 0.0 0.0 9.0
#pdf 21 21 4.132817e-01 3.368103e-01 5000.0 8.856117e-03 2.294399e-02
</event>
<event>
4 6 1.0 5000.0 7.905138e-03 7.739137e-02
21 -1 0 0 101 102  0.000000e+00  0.000000e+00  2.747379e+03  2.747379e+03 0.0 0.0 9.0
21 -1 0 0 103 101  0.000000e+00  0.000000e+00 -2.193282e+03  2.193282e+03 0.0 0.0 9.0
21  1 1 2 103 102  5.868876e+02 -8.579545e+02  2.514960e+03  2.721313e+03 0.0 0.0 9.0
22  1 1 2   0   0 -5.868876e+02  8.579545e+02 -1.960862e+03  2.219348e+03 0.0 0.0 9.0
#pdf 21 21 4.226737e-01 3.374280e-01 5000.0 7.857244e-03 2.277027e-02
</event>
<event>
4 6 1.0 5000.0 7.905138e-03 7.739137e-02
21 -1 0 0 101 102  0.000000e+00  0.000000e+00  3.062211e+03  3.062211e+03 0.0 0.0 9.0
21 -1 0 0 103 101  0.000000e+00  0.000000e+00 -1.977141e+03  1.977141e+03 0.0 0.0 9.0
22  1 1 2   0   0 -3.392076e+02  6.052131e+02  2.959976e+03  3.040198e+03 0.0 0.0 9.0
21  1 1 2 103 102  3.392076e+02 -6.052131e+02 -1.874906e+03  1.999154e+03 0.0 0.0 9.0
#pdf 21 21 4.711094e-01 3.041756e-01 5000.0 4.172577e-03 3.425234e-02
</event>
<event>
4 6 1.0 5000.0 7.905138e-03 7.739137e-02
21 -1 0 0 103 101  0.000000e+00  0.000000e+00  2.636136e+03  2.636136e+03 0.0 0.0 9.0
21 -1 0 0 101 102  0.000000e+00  0.000000e+00 -2.577275e+03  2.577275e+03 0.0 0.0 9.0
22  1 1 2   0   0 -1.628302e+03  4.342837e+02 -1.959183e+03  2.584253e+03 0.0 0.0 9.0
21  1 1 2 103 102  1.628302e+03 -4.342837e+02  2.018044e+03  2.629158e+03 0.0 0.0 9.0
#pdf 21 21 4.055594e-01 3.965038e-01 5000.0 9.770048e-03 1.095054e-02
</event>
<event>
4 6 1.0 5000.0 7.905138e-03 7.739137e-02
21 -1 0 0 101 102  0.000000e+00  0.000000e+00  2.249423e+03  2.249423e+03 0.0 0.0 9.0
21 -1 0 0 103 101  0.000000e+00  0.000000e+00 -3.147418e+03  3.147418e+03 0.0 0.0 9.0
22  1 1 2   0   0 -1.721217e+03 -1.959731e+03  8.450281e+01  2.609650e+03 0.0 0.0 9.0
21  1 1 2 103 102  1.721217e+03  1.959731e+03 -9.824976e+02  2.787191e+03 0.0 0.0 9.0
#pdf 21 21 3.460651e-01 4.842182e-01 5000.0 2.048567e-02 3.496342e-03
</event>
<event>
4 6 1.0 5000.0 7.905138e-03 7.739137e-02
21 -1 0 0 101 102  0.000000e+00  0.000000e+00  1.732968e+03  1.732968e+03 0.0 0.0 9.0
21 -1 0 0 103 101  0.000000e+00  0.000000e+00 -3.454588e+03  3.454588e+03 0.0 0.0 9.0
22  1 1 2   0   0 -1.242577e+02 -2.388752e+03 -3.149802e+02  2.412631e+03 0.0 0.0 9.0
21  1 1 2 103 102  1.242577e+02  2.388752e+03 -1.406640e+03  2.774925e+03 0.0 0.0 9.0
#pdf 21 21 2.666105e-01 5.314751e-01 5000.0 5.426485e-02 1.811350e-03
</event>
<event>
4 6 1.0 5000.0 7.905138e-03 7.739137e-02
21 -1 0 0 101 102  0.000000e+00  0.000000e+00  1.354548e+03  1.354548e+03 0.0 0.0 9.0
21 -1 0 0 103 101  0.000000e+00  0.000000e+00 -4.671917e+03  4.671917e+03 0.0 0.0 9.0
22  1 1 2   0   0 -5.481255e+02  1.793074e+03 -3.667572e+03  4.119058e+03 0.0 0.0 9.0
21  1 1 2 103 102  5.481255e+02 -1.793074e+03  3.502037e+02  1.907406e+03 0.0 0.0 9.0
#pdf 21 21 2.083920e-01 7.187564e-01 5000.0 1.127904e-01 7.359121e-05
</event>
<event>
4 6 1.0 5000.0 7.905138e-03 7.739137e-02
21 -1 0 0 101 102  0.000000e+00  0.000000e+00  9.938207e+02  9.938207e+02 0.0 0.0 9.0
21 -1 0 0 103 101  0.000000e+00  0.000000e+00 -4.687745e+03  4.687745e+03 0.0 0.0 9.0
21  1 1 2 103 102  2.615910e+02  1.831590e+03 -3.309967e+03  3.791969e+03 0.0 0.0 9.0
22  1 1 2   0   0 -2.615910e+02 -1.831590e+03 -3.839572e+02  1.889596e+03 0.0 0.0 9.0
#pdf 21 21 1.528955e-01 7.211915e-01 5000.0 2.385019e-01 6.987010e-05
</event>
<event>
4 6 1.0 5000.0 7.905138e-03 7.739137e-02
21 -1 0 0 103 101  0.000000e+00  0.000000e+00  1.980460e+03  1.980460e+03 0.0 0.0 9.0
21 -1 0 0 101 102  0.000000e+00  0.000000e+00 -3.318557e+03  3.318557e+03 0.0 0.0 9.0
21  1 1 2 103 102  5.691283e+02 -7.680209e+02  1.789385e+03  2.028710e+03 0.0 0.0 9.0
22  1 1 2   0   0 -5.691283e+02  7.680209e+02 -3.127482e+03  3.270307e+03 0.0 0.0 9.0
#pdf 21 21 3.046861e-01 5.105472e-01 5000.0 3.404141e-02 2.434822e-03
</event>
<event>
4 6 1.0 5000.0 7.905138e-03 7.739137e-02
21 -1 0 0 103 101  0.000000e+00  0.000000e+00  3.672683e+03  3.672683e+03 0.0 0.0 9.0
21 -1 0 0 101 102  0.000000e+00  0.000000e+00 -1.472115e+03  1.472115e+03 0.0 0.0 9.0
22  1 1 2   0   0  2.195013e+01 -1.377909e+03 -9.716423e+02  1.686180e+03 0.0 0.0 9.0
21  1 1 2 103 102 -2.195013e+01  1.377909e+03  3.172211e+03  3.458618e+03 0.0 0.0 9.0
#pdf 21 21 5.650282e-01 2.264792e-01 5000.0 1.106072e-03 8.954038e-02
</event>
<event>
4 6 1.0 5000.0 7.905138e-03 7.739137e-02
21 -1 0 0 101 102  0.000000e+00  0.000000e+00  3.377476e+03  3.377476e+03 0.0 0.0 9.0
21 -1 0 0 103 101  0.000000e+00  0.000000e+00 -1.863886e+03  1.863886e+03 0.0 0.0 9.0
22  1 1 2   0   0  1.501663e+03  1.498620e+03  2.155948e+03  3.024725e+03 0.0 0.0 9.0
21  1 1 2 103 102 -1.501663e+03 -1.498620e+03 -6.423576e+02  2.216636e+03 0.0 0.0 9.0
#pdf 21 21 5.196117e-01 2.867516e-01 5000.0 2.143378e-03 4.237318e-02
</event>
<event>
4 6 1.0 5000.0 7.905138e-03 7.739137e-02
21 -1 0 0 103 101  0.000000e+00  0.000000e+00  2.082272e+03  2.082272e+03 0.0 0.0 9.0
21 -1 0 0 101 102  0.000000e+00  0.000000e+00 -3.137388e+03  3.137388e+03 0.0 0.0 9.0
22  1 1 2   0   0 -4.822489e+02  1.473287e+03  1.547458e+03  2.190380e+03 0.0 0.0 9.0
21  1 1 2 103 102  4.822489e+02 -1.473287e+03 -2.602575e+03  3.029280e+03 0.0 0.0 9.0
#pdf 21 21 3.203495e-01 4.826751e-01 5000.0 2.807245e-02 3.570334e-03
</event>
<event>
4 6 1.0 5000.0 7.905138e-03 7.739137e-02
21 -1 0 0 101 102  0.000000e+00  0.000000e+00  3.570832e+03  3.570832e+03 0.0 0.0 9.0
21 -1 0 0 103 101  0.000000e+00  0.000000e+00 -1.718333e+03  1.718333e+03 0.0 0.0 9.0
22  1 1 2   0   0  2.331075e+03  5.807690e+01  1.818592e+03  2.957120e+03 0.0 0.0 9.0
21  1 1 2 103 102 -2.331075e+03 -5.807690e+01  3.390588e+01  2.332045e+03 0.0 0.0 9.0
#pdf 21 21 5.493587e-01 2.643590e-01 5000.0 1.394957e-03 5.579606e-02
</event>
<event>
4 6 1.0 5000.0 7.905138e-03 7.739137e-02
21 -1 0 0 101 102  0.000000e+00  0.000000e+00  4.279048e+03  4.279048e+03 0.0 0.0 9.0
21 -1 0 0 103 101  0.000000e+00  0.000000e+00 -1.151418e+03  1.151418e+03 0.0 0.0 9.0
22  1 1 2   0   0  7.970347e+01  2.190073e+03  1.994919e+03  2.963524e+03 0.0 0.0 9.0
21  1 1 2 103 102 -7.970347e+01 -2.190073e+03  1.132711e+03  2.466943e+03 0.0 0.0 9.0
#pdf 21 21 6.583151e-01 1.771413e-01 5000.0 2.391120e-04 1.704992e-01
</event>
<event>
4 6 1.0 5000.0 7.905138e-03 7.739137e-02
21 -1 0 0 101 102  0.000000e+00  0.000000e+00  2.211655e+03  2.211655e+03 0.0 0.0 9.0
21 -1 0 0 103 101  0.000000e+00  0.000000e+00 -2.717250e+03  2.717250e+03 0.0 0.0 9.0
22  1 1 2   0   0  1.916388e+03 -1.431256e+02 -1.782904e+03  2.621407e+03 0.0 0.0 9.0
21  1 1 2 103 102 -1.916388e+03  1.431256e+02  1.277309e+03  2.307498e+03 0.0 0.0 9.0
#pdf 21 21 3.402546e-01 4.180384e-01 5000.0 2.199422e-02 8.336096e-03
</event>
<event>
4 6 1.0 5000.0 7.905138e-03 7.739137e-02
21 -1 0 0 103 101  0.000000e+00  0.000000e+00  1.711167e+03  1.711167e+03 0.0 0.0 9.0
21 -1 0 0 101 102  0.000000e+00  0.000000e+00 -4.234335e+03  4.234335e+03 0.0 0.0 9.0
22  1 1 2   0   0 -1.010241e+03 -8.769265e+02  1.318059e+03  1.877995e+03 0.0 0.0 9.0
21  1 1 2 103 102  1.010241e+03  8.769265e+02 -3.841227e+03  4.067506e+03 0.0 0.0 9.0
#pdf 21 21 2.632565e-01 6.514361e-01 5000.0 5.656340e-02 2.701242e-04
</event>
<event>
4 6 1.0 5000.0 7.905138e-03 7.739137e-02
21 -1 0 0 101 102  0.000000e+00  0.000000e+00  2.206879e+03  2.206879e+03 0.0 0.0 9.0
21 -1 0 0 103 101  0.000000e+00  0.000000e+00 -2.733426e+03  2.733426e+03 0.0 0.0 9.0
22  1 1 2   0   0 -1.397889e+02 -8.403966e+02  2.053514e+03  2.223225e+03 0.0 0.0 9.0
21  1 1 2 103 102  1.397889e+02  8.403966e+02 -2.580061e+03  2.717080e+03 0.0 0.0 9.0
#pdf 21 21 3.395198e-01 4.205271e-01 5000.0 2.219306e-02 8.075805e-03
</event>
<event>
4 6 1.0 5000.0 7.905138e-03 7.739137e-02
21 -1 0 0 101 102  0.000000e+00  0.000000e+00  3.569352e+03  3.569352e+03 0.0 0.0 9.0
21 -1 0 0 103 101  0.000000e+00  0.000000e+00 -1.423701e+03  1.423701e+03 0.0 0.0 9.0
21  1 1 2 103 102 -2.561024e+02  2.124745e+03  1.857146e+03  2.833570e+03 0.0 0.0 9.0
22  1 1 2   0   0  2.561024e+02 -2.124745e+03  2.885057e+02  2.159483e+03 0.0 0.0 9.0
#pdf 21 21 5.491311e-01 2.190309e-01 5000.0 1.399721e-03 9.849188e-02
</event>
<event>
4 6 1.0 5000.0 7.905138e-03 7.739137e-02
21 -1 0 0 103 101  0.000000e+00  0.000000e+00  5.135862e+03  5.135862e+03 0.0 0.0 9.0
21 -1 0 0 101 102  0.000000e+00  0.000000e+00 -1.204866e+03  1.204866e+03 0.0 0.0 9.0
22  1 1 2   0   0 -1.432734e+03  9.861896e+02 -3.010449e+02  1.765199e+03 0.0 0.0 9.0
21  1 1 2 103 102  1.432734e+03 -9.861896e+02  4.232041e+03  4.575529e+03 0.0 0.0 9.0
#pdf 21 21 7.901326e-01 1.853640e-01 5000.0 1.343291e-05 1.527231e-01
</event>
<event>
4 6 1.0 5000.0 7.905138e-03 7.739137e-02
21 -1 0 0 103 101  0.000000e+00  0.000000e+00  1.803273e+03  1.803273e+03 0.0 0.0 9.0
21 -1 0 0 101 102  0.000000e+00  0.000000e+00 -2.628951e+03  2.628951e+03 0.0 0.0 9.0
22  1 1 2   0   0  7.116394e+02 -1.531122e+03  9.864109e+02  1.955447e+03 0.0 0.0 9.0
21  1 1 2 103 102 -7.116394e+02  1.531122e+03 -1.812088e+03  2.476778e+03 0.0 0.0 9.0
#pdf 21 21 2.774267e-01 4.044540e-01 5000.0 4.750571e-02 9.907639e-03
</event>
<event>
4 6 1.0 5000.0 7.905138e-03 7.739137e-02
21 -1 0 0 103 101  0.000000e+00  0.000000e+00  2.811740e+03  2.811740e+03 0.0 0.0 9.0
21 -1 0 0 101 102  0.000000e+00  0.000000e+00 -2.216467e+03  2.216467e+03 0.0 0.0 9.0
21  1 1 2 103 102  5.050305e+02  3.946705e+02  2.727463e+03  2.801763e+03 0.0 0.0 9.0
22  1 1 2   0   0 -5.050305e+02 -3.946705e+02 -2.132189e+03  2.226444e+03 0.0 0.0 9.0
#pdf 21 21 4.325754e-01 3.409949e-01 5000.0 6.919526e-03 2.179585e-02
</event>
<event>
4 6 1.0 5000.0 7.905138e-03 7.739137e-02
21 -1 0 0 101 102  0.000000e+00  0.000000e+00  1.763877e+03  1.763877e+03 0.0 0.0 9.0
21 -1 0 0 103 101  0.000000e+00  0.000000e+00 -3.416532e+03  3.416532e+03 0.0 0.0 9.0
22  1 1 2   0   0  1.694906e+03  1.741456e+03 -4.593493e+02  2.473131e+03 0.0 0.0 9.0
21  1 1 2 103 102 -1.694906e+03 -1.741456e+03 -1.193306e+03  2.707278e+03 0.0 0.0 9.0
#pdf 21 21 2.713657e-01 5.256203e-01 5000.0 5.117874e-02 1.968900e-03
</event>
<event>
4 6 1.0 5000.0 7.905138e-03 7.739137e-02
21 -1 0 0 103 101  0.000000e+00  0.000000e+00  1.948970e+03  1.948970e+03 0.0 0.0 9.0
21 -1 0 0 101 102  0.000000e+00  0.000000e+00 -2.286015e+03  2.286015e+03 0.0 0.0 9.0
22  1 1 2   0   0 -1.695168e+03 -1.217437e+03 -4.851652e+02  2.142693e+03 0.0 0.0 9.0
21  1 1 2 103 102  1.695168e+03  1.217437e+03  1.481205e+02  2.092292e+03 0.0 0.0 9.0
#pdf 21 21 2.998416e-01 3.516946e-01 5000.0 3.608265e-02 1.911534e-02
</event>
<event>
4 6 1.0 5000.0 7.905138e-03 7.739137e-02
21 -1 0 0 103 101  0.000000e+00  0.000000e+00  2.030155e+03  2.030155e+03 0.0 0.0 9.0
21 -1 0 0 101 102  0.000000e+00  0.000000e+00 -3.140188e+03  3.140188e+03 0.0 0.0 9.0
22  1 1 2   0   0  7.056646e+02  6.252714e+02  1.843156e+03  2.070302e+03 0.0 0.0 9.0
21  1 1 2 103 102 -7.056646e+02 -6.252714e+02 -2.953189e+03  3.100040e+03 0.0 0.0 9.0
#pdf 21 21 3.123315e-01 4.831058e-01 5000.0 3.098875e-02 3.549522e-03
</event>
<event>
4 6 1.0 5000.0 7.905138e-03 7.739137e-02
21 -1 0 0 101 102  0.000000e+00  0.000000e+00  2.646888e+03  2.646888e+03 0.0 0.0 9.0
21 -1 0 0 103 101  0.000000e+00  0.000000e+00 -2.236684e+03  2.236684e+03 0.0 0.0 9.0
21  1 1 2 103 102 -2.412728e+03 -3.107748e+02  1.557741e+02  2.437642e+03 0.0 0.0 9.0
22  1 1 2   0   0  2.412728e+03  3.107748e+02  2.544304e+02  2.445929e+03 0.0 0.0 9.0
#pdf 21 21 4.072135e-01 3.441052e-01 5000.0 9.567242e-03 2.098261e-02
</event>
<event>
4 6 1.0 5000.0 7.905138e-03 7.739137e-02
21 -1 0 0 101 102  0.000000e+00  0.000000e+00  2.244851e+03  2.244851e+03 0.0 0.0 9.0
21 -1 0 0 103 101  0.000000e+00  0.000000e+00 -2.998705e+03  2.998705e+03 0.0 0.0 9.0
21  1 1 2 103 102  1.084484e+03  1.886965e+03  1.050310e+03  2.416587e+03 0.0 0.0 9.0
22  1 1 2   0   0 -1.084484e+03 -1.886965e+03 -1.804164e+03  2.826968e+03 0.0 0.0 9.0
#pdf 21 21 3.453617e-01 4.613392e-01 5000.0 2.066272e-02 4.750090e-03
</event>
<event>
4 6 1.0 5000.0 7.905138e-03 7.739137e-02
21 -1 0 0 103 101  0.000000e+00  0.000000e+00  3.182095e+03  3.182095e+03 0.0 0.0 9.0
21 -1 0 0 101 102  0.000000e+00  0.000000e+00 -1.790802e+03  1.790802e+03 0.0 0.0 9.0
22  1 1 2   0   0  9.654927e+02 -1.497092e+03  2.350782e+03  2.949514e+03 0.0 0.0 9.0
21  1 1 2 103 102 -9.654927e+02  1.497092e+03 -9.594888e+02  2.023383e+03 0.0 0.0 9.0
#pdf 21 21 4.895531e-01 2.755080e-01 5000.0 3.252133e-03 4.863923e-02
</event>
<event>
4 6 1.0 5000.0 7.905138e-03 7.739137e-02
21 -1 0 0 103 101  0.000000e+00  0.000000e+00  2.947889e+03  2.947889e+03 0.0 0.0 9.0
21 -1 0 0 101 102  0.000000e+00  0.000000e+00 -2.095345e+03  2.095345e+03 0.0 0.0 9.0
21  1 1 2 103 102  2.166010e+03 -1.112461e+03  9.312066e+02  2.606975e+03 0.0 0.0 9.0
22  1 1 2   0   0 -2.166010e+03  1.112461e+03 -7.866289e+01  2.436259e+03 0.0 0.0 9.0
#pdf 21 21 4.535213e-01 3.223608e-01 5000.0 5.270006e-03 2.738967e-02
</event>
<event>
4 6 1.0 5000.0 7.905138e-03 7.739137e-02
21 -1 0 0 103 101  0.000000e+00  0.000000e+00  3.065146e+03  3.065146e+03 0.0 0.0 9.0
21 -1 0 0 101 102  0.000000e+00  0.000000e+00 -2.222173e+03  2.222173e+03 0.0 0.0 9.0
21  1 1 2 103 102  2.284817e+03 -1.192325e+03  4.746949e+00  2.577217e+03 0.0 0.0 9.0
22  1 1 2   0   0 -2.284817e+03  1.192325e+03  8.382253e+02  2.710101e+03 0.0 0.0 9.0
#pdf 21 21 4.715608e-01 3.418728e-01 5000.0 4.147496e-03 2.156305e-02
</event>
<event>
4 6 1.0 5000.0 7.905138e-03 7.739137e-02
21 -1 0 0 101 102  0.000000e+00  0.000000e+00  3.455564e+03  3.455564e+03 0.0 0.0 9.0
21 -1 0 0 103 101  0.000000e+00  0.000000e+00 -1.755015e+03  1.755015e+03 0.0 0.0 9.0
21  1 1 2 103 102  5.745957e+02  1.541617e+03  2.788860e+03  3.237976e+03 0.0 0.0 9.0
22  1 1 2   0   0 -5.745957e+02 -1.541617e+03 -1.088311e+03  1.972604e+03 0.0 0.0 9.0
#pdf 21 21 5.316253e-01 2.700023e-01 5000.0 1.807441e-03 5.204399e-02
</event>
<event>
4 6 1.0 5000.0 7.905138e-03 7.739137e-02
21 -1 0 0 101 102  0.000000e+00  0.000000e+00  2.955557e+03  2.955557e+03 0.0 0.0 9.0
21 -1 0 0 103 101  0.000000e+00  0.000000e+00 -2.298817e+03  2.298817e+03 0.0 0.0 9.0
22  1 1 2   0   0  5.225424e+02  2.520979e+03  7.388961e+02  2.678498e+03 0.0 0.0 9.0
21  1 1 2 103 102 -5.225424e+02 -2.520979e+03 -8.215670e+01  2.575876e+03 0.0 0.0 9.0
#pdf 21 21 4.547010e-01 3.536642e-01 5000.0 5.188643e-03 1.865299e-02
</event>
<event>
4 6 1.0 5000.0 7.905138e-03 7.739137e-02
21 -1 0 0 103 101  0.000000e+00  0.000000e+00  3.108319e+03  3.108319e+03 0.0 0.0 9.0
21 -1 0 0 101 102  0.000000e+00  0.000000e+00 -2.051609e+03  2.051609e+03 0.0 0.0 9.0
22  1 1 2   0   0  2.461456e+03  1.932501e+02 -1.316328e+01  2.469065e+03 0.0 0.0 9.0
21  1 1 2 103 102 -2.461456e+03 -1.932501e+02  1.069874e+03  2.690862e+03 0.0 0.0 9.0
#pdf 21 21 4.782030e-01 3.156321e-01 5000.0 3.793472e-03 2.974802e-02
</event>
<event>
4 6 1.0 5000.0 7.905138e-03 7.739137e-02
21 -1 0 0 103 101  0.000000e+00  0.000000e+00  2.093014e+03  2.093014e+03 0.0 0.0 9.0
21 -1 0 0 101 102  0.000000e+00  0.000000e+00 -3.147237e+03  3.147237e+03 0.0 0.0 9.0
22  1 1 2   0   0  1.209179e+03 -3.341174e+02 -2.812922e+03  3.079981e+03 0.0 0.0 9.0
21  1 1 2 103 102 -1.209179e+03  3.341174e+02  1.758699e+03  2.160271e+03 0.0 0.0 9.0
#pdf 21 21 3.220022e-01 4.841904e-01 5000.0 2.751011e-02 3.497662e-03
</event>
<event>
4 6 1.0 5000.0 7.905138e-03 7.739137e-02
21 -1 0 0 101 102  0.000000e+00  0.000000e+00  2.235129e+03  2.235129e+03 0.0 0.0 9.0
21 -1 0 0 103 101  0.000000e+00  0.000000e+00 -2.814329e+03  2.814329e+03 0.0 0.0 9.0
22  1 1 2   0   0  2.190936e+03  1.122478e+03  1.934119e+02  2.469325e+03 0.0 0.0 9.0
21  1 1 2 103 102 -2.190936e+03 -1.122478e+03 -7.726113e+02  2.580133e+03 0.0 0.0 9.0
#pdf 21 21 3.438660e-01 4.329736e-01 5000.0 2.104403e-02 6.884445e-03
</event>
<event>
4 6 1.0 5000.0 7.905138e-03 7.739137e-02
21 -1 0 0 101 102  0.000000e+00  0.000000e+00  2.646865e+03  2.646865e+03 0.0 0.0 9.0
21 -1 0 0 103 101  0.000000e+00  0.000000e+00 -2.651741e+03  2.651741e+03 0.0 0.0 9.0
21  1 1 2 103 102  7.215627e+02  1.751616e+03  1.849586e+03  2.647599e+03 0.0 0.0 9.0
22  1 1 2   0   0 -7.215627e+02 -1.751616e+03 -1.854461e+03  2.651007e+03 0.0 0.0 9.0
#pdf 21 21 4.072100e-01 4.079601e-01 5000.0 9.567668e-03 9.476871e-03
</event>
<event>
4 6 1.0 5000.0 7.905138e-03 7.739137e-02
21 -1 0 0 101 102  0.000000e+00  0.000000e+00  2.485613e+03  2.485613e+03 0.0 0.0 9.0
21 -1 0 0 103 101  0.000000e+00  0.000000e+00 -2.424374e+03  2.424374e+03 0.0 0.0 9.0
22  1 1 2   0   0 -1.224636e+03  2.064196e+03  5.458451e+02  2.461419e+03 0.0 0.0 9.0
21  1 1 2 103 102  1.224636e+03 -2.064196e+03 -4.846069e+02  2.448568e+03 0.0 0.0 9.0
#pdf 21 21 3.824019e-01 3.729807e-01 5000.0 1.307703e-02 1.469058e-02
</event>
<event>
4 6 1.0 5000.0 7.905138e-03 7.739137e-02
21 -1 0 0 103 101  0.000000e+00  0.000000e+00  2.861618e+03  2.861618e+03 0.0 0.0 9.0
21 -1 0 0 101 102  0.000000e+00  0.000000e+00 -2.446430e+03  2.446430e+03 0.0 0.0 9.0
21  1 1 2 103 102  5.701018e+02  2.205718e+03  1.557291e+03  2.759595e+03 0.0 0.0 9.0
22  1 1 2   0   0 -5.701018e+02 -2.205718e+03 -1.142103e+03  2.548452e+03 0.0 0.0 9.0
#pdf 21 21 4.402489e-01 3.763738e-01 5000.0 6.270212e-03 1.409482e-02
</event>
<event>
4 6 1.0 5000.0 7.905138e-03 7.739137e-02
21 -1 0 0 103 101  0.000000e+00  0.000000e+00  1.690971e+03  1.690971e+03 0.0 0.0 9.0
21 -1 0 0 101 102  0.000000e+00  0.000000e+00 -3.507163e+03  3.507163e+03 0.0 0.0 9.0
22  1 1 2   0   0  1.359118e+03 -8.863996e+01 -3.062659e+03  3.351856e+03 0.0 0.0 9.0
21  1 1 2 103 102 -1.359118e+03  8.863996e+01  1.246468e+03  1.846278e+03 0.0 0.0 9.0
#pdf 21 21 2.601494e-01 5.395635e-01 5000.0 5.879784e-02 1.609922e-03
</event>
<event>
4 6 1.0 5000.0 7.905138e-03 7.739137e-02
21 -1 0 0 103 101  0.000000e+00  0.000000e+00  2.878601e+03  2.878601e+03 0.0 0.0 9.0
21 -1 0 0 101 102  0.000000e+00  0.000000e+00 -2.172394e+03  2.172394e+03 0.0 0.0 9.0
22  1 1 2   0   0  2.078044e+03 -5.992942e+02  1.620959e+03  2.702763e+03 0.0 0.0 9.0
21  1 1 2 103 102 -2.078044e+03  5.992942e+02 -9.147528e+02  2.348232e+03 0.0 0.0 9.0
#pdf 21 21 4.428616e-01 3.342145e-01 5000.0 6.058729e-03 2.368930e-02
</event>
<event>
4 6 1.0 5000.0 7.905138e-03 7.739137e-02
21 -1 0 0 103 101  0.000000e+00  0.000000e+00  2.233325e+03  2.233325e+03 0.0 0.0 9.0
21 -1 0 0 101 102  0.000000e+00  0.000000e+00 -2.722121e+03  2.722121e+03 0.0 0.0 9.0
21  1 1 2 103 102 -1.136248e+03 -2.098948e+03 -8.660879e+02  2.539045e+03 0.0 0.0 9.0
22  1 1 2   0   0  1.136248e+03  2.098948e+03  3.772917e+02  2.416401e+03 0.0 0.0 9.0
#pdf 21 21 3.435885e-01 4.187879e-01 5000.0 2.111555e-02 8.256902e-03
</event>
<event>
4 6 1.0 5000.0 7.905138e-03 7.739137e-02
21 -1 0 0 103 101  0.000000e+00  0.000000e+00  2.387572e+03  2.387572e+03 0.0 0.0 9.0
21 -1 0 0 101 102  0.000000e+00  0.000000e+00 -2.661232e+03  2.661232e+03 0.0 0.0 9.0
22  1 1 2   0   0  1.513173e+03  1.266626e+03  1.433870e+03  2.439266e+03 0.0 0.0 9.0
21  1 1 2 103 102 -1.513173e+03 -1.266626e+03 -1.707529e+03  2.609539e+03 0.0 0.0 9.0
#pdf 21 21 3.673188e-01 4.094204e-01 5000.0 1.575709e-02 9.302217e-03
</event>
<event>
4 6 1.0 5000.0 7.905138e-03 7.739137e-02
21 -1 0 0 101 102  0.000000e+00  0.000000e+00  2.969612e+03  2.969612e+03 0.0 0.0 9.0
21 -1 0 0 103 101  0.000000e+00  0.000000e+00 -2.153855e+03  2.153855e+03 0.0 0.0 9.0
22  1 1 2   0   0 -1.882522e+03 -3.999615e+02 -1.254134e+03  2.297109e+03 0.0 0.0 9.0
21  1 1 2 103 102  1.882522e+03  3.999615e+02  2.069891e+03  2.826359e+03 0.0 0.0 9.0
#pdf 21 21 4.568634e-01 3.313624e-01 5000.0 5.041888e-03 2.453337e-02
</event>
<event>
4 6 1.0 5000.0 7.905138e-03 7.739137e-02
21 -1 0 0 101 102  0.000000e+00  0.000000e+00  2.198255e+03  2.198255e+03 0.0 0.0 9.0
21 -1 0 0 103 101  0.000000e+00  0.000000e+00 -2.261374e+03  2.261374e+03 0.0 0.0 9.0
22  1 1 2   0   0 -8.509228e+02  3.651591e+02 -2.059980e+03  2.258523e+03 0.0 0.0 9.0
21  1 1 2 103 102  8.509228e+02 -3.651591e+02  1.996861e+03  2.201105e+03 0.0 0.0 9.0
#pdf 21 21 3.381931e-01 3.479037e-01 5000.0 2.255720e-02 2.002938e-02
</event>
<event>
4 6 1.0 5000.0 7.905138e-03 7.739137e-02
21 -1 0 0 103 101  0.000000e+00  0.000000e+00  2.276490e+03  2.276490e+03 0.0 0.0 9.0
21 -1 0 0 101 102  0.000000e+00  0.000000e+00 -2.301096e+03  2.301096e+03 0.0 0.0 9.0
21  1 1 2 103 102  1.454386e+03 -5.917322e+02  1.652964e+03  2.279841e+03 0.0 0.0 9.0
22  1 1 2   0   0 -1.454386e+03  5.917322e+02 -1.677570e+03  2.297744e+03 0.0 0.0 9.0
#pdf 21 21 3.502292e-01 3.540147e-01 5000.0 1.946467e-02 1.857151e-02
</event>
<event>
4 6 1.0 5000.0 7.905138e-03 7.739137e-02
21 -1 0 0 101 102  0.000000e+00  0.000000e+00  1.813493e+03  1.813493e+03 0.0 0.0 9.0
21 -1 0 0 103 101  0.000000e+00  0.000000e+00 -3.461888e+03  3.461888e+03 0.0 0.0 9.0
22  1 1 2   0   0 -1.720730e+03 -1.808374e+03 -5.960182e+02  2.566392e+03 0.0 0.0 9.0
21  1 1 2 103 102  1.720730e+03  1.808374e+03 -1.052376e+03  2.708989e+03 0.0 0.0 9.0
#pdf 21 21 2.789990e-01 5.325981e-01 5000.0 4.659569e-02 1.782252e-03
</event>
<event>
4 6 1.0 5000.0 7.905138e-03 7.739137e-02
21 -1 0 0 101 102  0.000000e+00  0.000000e+00  2.626035e+03  2.626035e+03 0.0 0.0 9.0
21 -1 0 0 103 101  0.000000e+00  0.000000e+00 -2.383599e+03  2.383599e+03 0.0 0.0 9.0
21  1 1 2 103 102  9.718784e+02 -3.685297e+02  2.399641e+03  2.615079e+03 0.0 0.0 9.0
22  1 1 2   0   0 -9.718784e+02  3.685297e+02 -2.157205e+03  2.394555e+03 0.0 0.0 9.0
#pdf 21 21 4.040054e-01 3.667075e-01 5000.0 9.963949e-03 1.587882e-02
</event>
<event>
4 6 1.0 5000.0 7.905138e-03 7.739137e-02
21 -1 0 0 103 101  0.000000e+00  0.000000e+00  1.625088e+03  1.625088e+03 0.0 0.0 9.0
21 -1 0 0 101 102  0.000000e+00  0.000000e+00 -3.010170e+03  3.010170e+03 0.0 0.0 9.0
22  1 1 2   0   0 -1.715650e+03 -8.475742e+02 -1.854671e+03  2.664890e+03 0.0 0.0 9.0
21  1 1 2 103 102  1.715650e+03  8.475742e+02  4.695887e+02  1.970368e+03 0.0 0.0 9.0
#pdf 21 21 2.500135e-01 4.631031e-01 5000.0 6.672547e-02 4.640340e-03
</event>
<event>
4 6 1.0 5000.0 7.905138e-03 7.739137e-02
21 -1 0 0 103 101  0.000000e+00  0.000000e+00  2.560290e+03  2.560290e+03 0.0 0.0 9.0
21 -1 0 0 101 102  0.000000e+00  0.000000e+00 -2.581071e+03  2.581071e+03 0.0 0.0 9.0
21  1 1 2 103 102 -1.296291e+03 -2.035091e+03 -8.971476e+02  2.574265e+03 0.0 0.0 9.0
22  1 1 2   0   0  1.296291e+03  2.035091e+03  8.763671e+02  2.567097e+03 0.0 0.0 9.0
#pdf 21 21 3.938908e-01 3.970878e-01 5000.0 1.131597e-02 1.087050e-02
</event>
<event>
4 6 1.0 5000.0 7.905138e-03 7.739137e-02
21 -1 0 0 101 102  0.000000e+00  0.000000e+00  2.261120e+03  2.261120e+03 0.0 0.0 9.0
21 -1 0 0 103 101  0.000000e+00  0.000000e+00 -2.288880e+03  2.288880e+03 0.0 0.0 9.0
22  1 1 2   0   0 -1.204841e+03 -1.554942e+03  1.128921e+03  2.268028e+03 0.0 0.0 9.0
21  1 1 2 103 102  1.204841e+03  1.554942e+03 -1.156681e+03  2.281972e+03 0.0 0.0 9.0
#pdf 21 21 3.478646e-01 3.521354e-01 5000.0 2.003897e-02 1.901118e-02
</event>
<event>
4 6 1.0 5000.0 7.905138e-03 7.739137e-02
21 -1 0 0 103 101  0.000000e+00  0.000000e+00  2.672127e+03  2.672127e+03 0.0 0.0 9.0
21 -1 0 0 101 102  0.000000e+00  0.000000e+00 -2.312647e+03  2.312647e+03 0.0 0.0 9.0
21  1 1 2 103 102 -6.609582e+02  1.057356e+03  2.335893e+03  2.647880e+03 0.0 0.0 9.0
22  1 1 2   0   0  6.609582e+02 -1.057356e+03 -1.976413e+03  2.336895e+03 0.0 0.0 9.0
#pdf 21 21 4.110965e-01 3.557919e-01 5000.0 9.105778e-03 1.816473e-02
</event>
<event>
4 6 1.0 5000.0 7.905138e-03 7.739137e-02
21 -1 0 0 103 101  0.000000e+00  0.000000e+00  2.273007e+03  2.273007e+03 0.0 0.0 9.0
21 -1 0 0 101 102  0.000000e+00  0.000000e+00 -2.732429e+03  2.732429e+03 0.0 0.0 9.0
21  1 1 2 103 102 -1.235585e+03  1.646108e+03 -1.640833e+03  2.632238e+03 0.0 0.0 9.0
22  1 1 2   0   0  1.235585e+03 -1.646108e+03  1.181411e+03  2.373199e+03 0.0 0.0 9.0
#pdf 21 21 3.496935e-01 4.203738e-01 5000.0 1.959360e-02 8.091621e-03
</event>
<event>
4 6 1.0 5000.0 7.905138e-03 7.739137e-02
21 -1 0 0 101 102  0.000000e+00  0.000000e+00  2.820481e+03  2.820481e+03 0.0 0.0 9.0
21 -1 0 0 103 101  0.000000e+00  0.000000e+00 -2.056139e+03  2.056139e+03 0.0 0.0 9.0
22  1 1 2   0   0 -1.441984e+03  1.893074e+03  7.559130e+02  2.496889e+03 0.0 0.0 9.0
21  1 1 2 103 102  1.441984e+03 -1.893074e+03  8.429580e+00  2.379731e+03 0.0 0.0 9.0
#pdf 21 21 4.339202e-01 3.163290e-01 5000.0 6.801774e-03 2.949313e-02
</event>
<event>
4 6 1.0 5000.0 7.905138e-03 7.739137e-02
21 -1 0 0 103 101  0.000000e+00  0.000000e+00  3.167485e+03  3.167485e+03 0.0 0.0 9.0
21 -1 0 0 101 102  0.000000e+00  0.000000e+00 -1.766576e+03  1.766576e+03 0.0 0.0 9.0
22  1 1 2   0   0  5.144357e+02 -6.835279e+02  3.000501e+03  3.120074e+03 0.0 0.0 9.0
21  1 1 2 103 102 -5.144357e+02  6.835279e+02 -1.599592e+03  1.813987e+03 0.0 0.0 9.0
#pdf 21 21 4.873054e-01 2.717809e-01 5000.0 3.352916e-03 5.091820e-02
</event>
<event>
4 6 1.0 5000.0 7.905138e-03 7.739137e-02
21 -1 0 0 101 102  0.000000e+00  0.000000e+00  1.922438e+03  1.922438e+03 0.0 0.0 9.0
21 -1 0 0 103 101  0.000000e+00  0.000000e+00 -3.010826e+03  3.010826e+03 0.0 0.0 9.0
22  1 1 2   0   0  1.310840e+03  2.345143e+02  1.510130e+03  2.013403e+03 0.0 0.0 9.0
21  1 1 2 103 102 -1.310840e+03 -2.345143e+02 -2.598517e+03  2.919861e+03 0.0 0.0 9.0
#pdf 21 21 2.957597e-01 4.632040e-01 5000.0 3.797600e-02 4.634162e-03
</event>
<event>
4 6 1.0 5000.0 7.905138e-03 7.739137e-02
21 -1 0 0 103 101  0.000000e+00  0.000000e+00  2.797695e+03  2.797695e+03 0.0 0.0 9.0
21 -1 0 0 101 102  0.000000e+00  0.000000e+00 -1.749020e+03  1.749020e+03 0.0 0.0 9.0
21  1 1 2 103 102  4.789165e+02 -5.618198e+02 -1.618681e+03  1.779081e+03 0.0 0.0 9.0
22  1 1 2   0   0 -4.789165e+02  5.618198e+02  2.667356e+03  2.767633e+03 0.0 0.0 9.0
#pdf 21 21 4.304145e-01 2.690799e-01 5000.0 7.113187e-03 5.263814e-02
</event>
<event>
4 6 1.0 5000.0 7.905138e-03 7.739137e-02
21 -1 0 0 103 101  0.000000e+00  0.000000e+00  3.426605e+03  3.426605e+03 0.0 0.0 9.0
21 -1 0 0 101 102  0.000000e+00  0.000000e+00 -1.728760e+03  1.728760e+03 0.0 0.0 9.0
21  1 1 2 103 102  2.180254e+03  6.413294e+02  1.771582e+03  2.881547e+03 0.0 0.0 9.0
22  1 1 2   0   0 -2.180254e+03 -6.413294e+02 -7.373717e+01  2.273818e+03 0.0 0.0 9.0
#pdf 21 21 5.271700e-01 2.659631e-01 5000.0 1.926146e-03 5.470035e-02
</event>
<event>
4 6 1.0 5000.0 7.905138e-03 7.739137e-02
21 -1 0 0 103 101  0.000000e+00  0.000000e+00  2.824822e+03  2.824822e+03 0.0 0.0 9.0
21 -1 0 0 101 102  0.000000e+00  0.000000e+00 -2.173214e+03  2.173214e+03 0.0 0.0 9.0
21  1 1 2 103 102 -2.195139e+03 -1.140983e+03  1.887608e+02  2.481151e+03 0.0 0.0 9.0
22  1 1 2   0   0  2.195139e+03  1.140983e+03  4.628472e+02  2.516884e+03 0.0 0.0 9.0
#pdf 21 21 4.345879e-01 3.343406e-01 5000.0 6.744025e-03 2.365261e-02
</event>
<event>
4 6 1.0 5000.0 7.905138e-03 7.739137e-02
21 -1 0 0 103 101  0.000000e+00  0.000000e+00  3.356558e+03  3.356558e+03 0.0 0.0 9.0
21 -1 0 0 101 102  0.000000e+00  0.000000e+00 -1.796785e+03  1.796785e+03 0.0 0.0 9.0
22  1 1 2   0   0  1.402133e+02 -9.613713e+02 -1.586577e+03  1.860409e+03 0.0 0.0 9.0
21  1 1 2 103 102 -1.402133e+02  9.613713e+02  3.146350e+03  3.292934e+03 0.0 0.0 9.0
#pdf 21 21 5.163935e-01 2.764284e-01 5000.0 2.243312e-03 4.809224e-02
</event>
<event>
4 6 1.0 5000.0 7.905138e-03 7.739137e-02
21 -1 0 0 101 102  0.000000e+00  0.000000e+00  3.785523e+03  3.785523e+03 0.0 0.0 9.0
21 -1 0 0 103 101  0.000000e+00  0.000000e+00 -1.664724e+03  1.664724e+03 0.0 0.0 9.0
21  1 1 2 103 102  7.045336e+01  2.234667e+03 -1.788244e+02  2.242917e+03 0.0 0.0 9.0
22  1 1 2   0   0 -7.045336e+01 -2.234667e+03  2.299624e+03  3.207330e+03 0.0 0.0 9.0
#pdf 21 21 5.823882e-01 2.561114e-01 5000.0 8.469813e-04 6.185090e-02
</event>
<event>
4 6 1.0 5000.0 7.905138e-03 7.739137e-02
21 -1 0 0 101 102  0.000000e+00  0.000000e+00  4.146394e+03  4.146394e+03 0.0 0.0 9.0
21 -1 0 0 103 101  0.000000e+00  0.000000e+00 -1.389664e+03  1.389664e+03 0.0 0.0 9.0
21  1 1 2 103 102  2.028516e+03 -2.018064e+02 -8.320445e+01  2.040227e+03 0.0 0.0 9.0
22  1 1 2   0   0 -2.028516e+03  2.018064e+02  2.839935e+03  3.495831e+03 0.0 0.0 9.0
#pdf 21 21 6.379068e-01 2.137945e-01 5000.0 3.421776e-04 1.053134e-01
</event>
<event>
4 6 1.0 5000.0 7.905138e-03 7.739137e-02
21 -1 0 0 101 102  0.000000e+00  0.000000e+00  2.804041e+03  2.804041e+03 0.0 0.0 9.0
21 -1 0 0 103 101  0.000000e+00  0.000000e+00 -2.117129e+03  2.117129e+03 0.0 0.0 9.0
22  1 1 2   0   0 -1.455204e+03 -1.468643e+02 -1.624483e+03  2.185894e+03 0.0 0.0 9.0
21  1 1 2 103 102  1.455204e+03  1.468643e+02  2.311395e+03  2.735276e+03 0.0 0.0 9.0
#pdf 21 21 4.313910e-01 3.257121e-01 5000.0 7.024959e-03 2.628975e-02
</event>
<event>
4 6 1.0 5000.0 7.905138e-03 7.739137e-02
21 -1 0 0 103 101  0.000000e+00  0.000000e+00  1.994080e+03  1.994080e+03 0.0 0.0 9.0
21 -1 0 0 101 102  0.000000e+00  0.000000e+00 -2.971398e+03  2.971398e+03 0.0 0.0 9.0
22  1 1 2   0   0 -1.512372e+03  1.724456e+03 -1.319896e+03  2.646345e+03 0.0 0.0 9.0
21  1 1 2 103 102  1.512372e+03 -1.724456e+03  3.425778e+02  2.319133e+03 0.0 0.0 9.0
#pdf 21 21 3.067815e-01 4.571381e-01 5000.0 3.318377e-02 5.023490e-03
</event>
<event>
4 6 1.0 5000.0 7.905138e-03 7.739137e-02
21 -1 0 0 103 101  0.000000e+00  0.000000e+00  2.581367e+03  2.581367e+03 0.0 0.0 9.0
21 -1 0 0 101 102  0.000000e+00  0.000000e+00 -2.462453e+03  2.462453e+03 0.0 0.0 9.0
21  1 1 2 103 102 -1.349200e+03  1.914098e+03  9.937322e+02  2.543937e+03 0.0 0.0 9.0
22  1 1 2   0   0  1.349200e+03 -1.914098e+03 -8.748183e+02  2.499884e+03 0.0 0.0 9.0
#pdf 21 21 3.971334e-01 3.788390e-01 5000.0 1.086427e-02 1.367185e-02
</event>
<event>
4 6 1.0 5000.0 7.905138e-03 7.739137e-02
21 -1 0 0 101 102  0.000000e+00  0.000000e+00  3.297405e+03  3.297405e+03 0.0 0.0 9.0
21 -1 0 0 103 101  0.000000e+00  0.000000e+00 -2.672308e+03  2.672308e+03 0.0 0.0 9.0
22  1 1 2   0   0 -1.086563e+03 -9.053916e+02  2.936827e+03  3.259649e+03 0.0 0.0 9.0
21  1 1 2 103 102  1.086563e+03  9.053916e+02 -2.311730e+03  2.710064e+03 0.0 0.0 9.0
#pdf 21 21 5.072931e-01 4.111243e-01 5000.0 2.547457e-03 9.102563e-03
</event>
<event>
4 6 1.0 5000.0 7.905138e-03 7.739137e-02
21 -1 0 0 103 101  0.000000e+00  0.000000e+00  1.979457e+03  1.979457e+03 0.0 0.0 9.0
21 -1 0 0 101 102  0.000000e+00  0.000000e+00 -2.198613e+03  2.198613e+03 0.0 0.0 9.0
22  1 1 2   0   0 -4.755465e+02 -1.273491e+03 -1.694206e+03  2.172155e+03 0.0 0.0 9.0
21  1 1 2 103 102  4.755465e+02  1.273491e+03  1.475049e+03  2.005915e+03 0.0 0.0 9.0
#pdf 21 21 3.045318e-01 3.382482e-01 5000.0 3.410507e-02 2.254192e-02
</event>
<event>
4 6 1.0 5000.0 7.905138e-03 7.739137e-02
21 -1 0 0 101 102  0.000000e+00  0.000000e+00  2.951749e+03  2.951749e+03 0.0 0.0 9.0
21 -1 0 0 103 101  0.000000e+00  0.000000e+00 -2.156641e+03  2.156641e+03 0.0 0.0 9.0
21  1 1 2 103 102 -1.081047e+03  1.536587e+03 -1.307296e+03  2.288839e+03 0.0 0.0 9.0
22  1 1 2   0   0  1.081047e+03 -1.536587e+03  2.102404e+03  2.819550e+03 0.0 0.0 9.0
#pdf 21 21 4.541152e-01 3.317909e-01 5000.0 5.228940e-03 2.440483e-02
</event>
<event>
4 6 1.0 5000.0 7.905138e-03 7.739137e-02
21 -1 0 0 101 102  0.000000e+00  0.000000e+00  2.911290e+03  2.911290e+03 0.0 0.0 9.0
21 -1 0 0 103 101  0.000000e+00  0.000000e+00 -2.018941e+03  2.018941e+03 0.0 0.0 9.0
22  1 1 2   0   0  1.212669e+03  2.095823e+03  3.229677e+02  2.442816e+03 0.0 0.0 9.0
21  1 1 2 103 102 -1.212669e+03 -2.095823e+03  5.693814e+02  2.487415e+03 0.0 0.0 9.0
#pdf 21 21 4.478908e-01 3.106063e-01 5000.0 5.668270e-03 3.165767e-02
</event>
<event>
4 6 1.0 5000.0 7.905138e-03 7.739137e-02
21 -1 0 0 103 101  0.000000e+00  0.000000e+00  2.269138e+03  2.269138e+03 0.0 0.0 9.0
21 -1 0 0 101 102  0.000000e+00  0.000000e+00 -2.753434e+03  2.753434e+03 0.0 0.0 9.0
21  1 1 2 103 102  1.287065e+03  1.775020e+03 -1.448055e+03  2.627565e+03 0.0 0.0 9.0
22  1 1 2   0   0 -1.287065e+03 -1.775020e+03  9.637591e+02  2.395008e+03 0.0 0.0 9.0
#pdf 21 21 3.490982e-01 4.236053e-01 5000.0 1.973765e-02 7.764025e-03
</event>
<event>
4 6 1.0 5000.0 7.905138e-03 7.739137e-02
21 -1 0 0 101 102  0.000000e+00  0.000000e+00  2.783019e+03  2.783019e+03 0.0 0.0 9.0
21 -1 0 0 103 101  0.000000e+00  0.000000e+00 -1.700675e+03  1.700675e+03 0.0 0.0 9.0
21  1 1 2 103 102  7.265479e+02 -1.829504e+03 -4.133681e+02  2.011425e+03 0.0 0.0 9.0
22  1 1 2   0   0 -7.265479e+02  1.829504e+03  1.495712e+03  2.472268e+03 0.0 0.0 9.0
#pdf 21 21 4.281567e-01 2.616423e-01 5000.0 7.322172e-03 5.771096e-02
</event>
<event>
4 6 1.0 5000.0 7.905138e-03 7.739137e-02
21 -1 0 0 103 101  0.000000e+00  0.000000e+00  2.830507e+03  2.830507e+03 0.0 0.0 9.0
21 -1 0 0 101 102  0.000000e+00  0.000000e+00 -1.716687e+03  1.716687e+03 0.0 0.0 9.0
21  1 1 2 103 102 -8.094918e+02 -8.390759e+02  2.486458e+03  2.746234e+03 0.0 0.0 9.0
22  1 1 2   0   0  8.094918e+02  8.390759e+02 -1.372638e+03  1.800961e+03 0.0 0.0 9.0
#pdf 21 21 4.354627e-01 2.641057e-01 5000.0 6.669048e-03 5.597128e-02
</event>
<event>
4 6 1.0 5000.0 7.905138e-03 7.739137e-02
21 -1 0 0 101 102  0.000000e+00  0.000000e+00  2.775465e+03  2.775465e+03 0.0 0.0 9.0
21 -1 0 0 103 101  0.000000e+00  0.000000e+00 -1.845439e+03  1.845439e+03 0.0 0.0 9.0
21  1 1 2 103 102  1.861978e+03  5.740289e+02 -7.103334e+02  2.073896e+03 0.0 0.0 9.0
22  1 1 2   0   0 -1.861978e+03 -5.740289e+02  1.640360e+03  2.547008e+03 0.0 0.0 9.0
#pdf 21 21 4.269947e-01 2.839137e-01 5000.0 7.432666e-03 4.386156e-02
</event>
<event>
4 6 1.0 5000.0 7.905138e-03 7.739137e-02
21 -1 0 0 101 102  0.000000e+00  0.000000e+00  2.249496e+03  2.249496e+03 0.0 0.0 9.0
21 -1 0 0 103 101  0.000000e+00  0.000000e+00 -2.649312e+03  2.649312e+03 0.0 0.0 9.0
22  1 1 2   0   0  1.525506e+03  9.397064e+02 -1.863589e+03  2.585185e+03 0.0 0.0 9.0
21  1 1 2 103 102 -1.525506e+03 -9.397064e+02  1.463773e+03  2.313623e+03 0.0 0.0 9.0
#pdf 21 21 3.460763e-01 4.075865e-01 5000.0 2.048287e-02 9.522013e-03
</event>
<event>
4 6 1.0 5000.0 7.905138e-03 7.739137e-02
21 -1 0 0 101 102  0.000000e+00  0.000000e+00  4.220483e+03  4.220483e+03 0.0 0.0 9.0
21 -1 0 0 103 101  0.000000e+00  0.000000e+00 -1.480338e+03  1.480338e+03 0.0 0.0 9.0
21  1 1 2 103 102 -2.016129e+01 -1.326159e+03 -1.045961e+03  1.689124e+03 0.0 0.0 9.0
22  1 1 2   0   0  2.016129e+01  1.326159e+03  3.786107e+03  4.011697e+03 0.0 0.0 9.0
#pdf 21 21 6.493051e-01 2.277442e-01 5000.0 2.803977e-04 8.811095e-02
</event>
<event>
4 6 1.0 5000.0 7.905138e-03 7.739137e-02
21 -1 0 0 101 102  0.000000e+00  0.000000e+00  2.580344e+03  2.580344e+03 0.0 0.0 9.0
21 -1 0 0 103 101  0.000000e+00  0.000000e+00 -2.506484e+03  2.506484e+03 0.0 0.0 9.0
21  1 1 2 103 102 -1.355234e+03  1.566595e+03 -1.438594e+03  2.521990e+03 0.0 0.0 9.0
22  1 1 2   0   0  1.355234e+03 -1.566595e+03  1.512454e+03  2.564838e+03 0.0 0.0 9.0
#pdf 21 21 3.969760e-01 3.856130e-01 5000.0 1.088578e-02 1.255941e-02
</event>
<event>
4 6 1.0 5000.0 7.905138e-03 7.739137e-02
21 -1 0 0 101 102  0.000000e+00  0.000000e+00  2.817667e+03  2.817667e+03 0.0 0.0 9.0
21 -1 0 0 103 101  0.000000e+00  0.000000e+00 -2.278452e+03  2.278452e+03 0.0 0.0 9.0
21  1 1 2 103 102  2.324480e+02  1.286154e+03  2.452505e+03  2.779029e+03 0.0 0.0 9.0
22  1 1 2   0   0 -2.324480e+02 -1.286154e+03 -1.913290e+03  2.317090e+03 0.0 0.0 9.0
#pdf 21 21 4.334872e-01 3.505311e-01 5000.0 6.839470e-03 1.939231e-02
</event>
<event>
4 6 1.0 5000.0 7.905138e-03 7.739137e-02
21 -1 0 0 103 101  0.000000e+00  0.000000e+00  2.017355e+03  2.017355e+03 0.0 0.0 9.0
21 -1 0 0 101 102  0.000000e+00  0.000000e+00 -3.108020e+03  3.108020e+03 0.0 0.0 9.0
22  1 1 2   0   0 -2.441539e+03  1.002373e+02  1.412467e+01  2.443636e+03 0.0 0.0 9.0
21  1 1 2 103 102  2.441539e+03 -1.002373e+02 -1.104791e+03  2.681739e+03 0.0 0.0 9.0
#pdf 21 21 3.103622e-01 4.781570e-01 5000.0 3.175334e-02 3.795829e-03
</event>
<event>
4 6 1.0 5000.0 7.905138e-03 7.739137e-02
21 -1 0 0 103 101  0.000000e+00  0.000000e+00  2.111683e+03  2.111683e+03 0.0 0.0 9.0
21 -1 0 0 101 102  0.000000e+00  0.000000e+00 -2.651093e+03  2.651093e+03 0.0 0.0 9.0
21  1 1 2 103 102 -7.275635e+02 -4.734746e+02 -2.485036e+03  2.632286e+03 0.0 0.0 9.0
22  1 1 2   0   0  7.275635e+02  4.734746e+02  1.945626e+03  2.130490e+03 0.0 0.0 9.0
#pdf 21 21 3.248743e-01 4.078604e-01 5000.0 2.656045e-02 9.488898e-03
</event>
<event>
4 6 1.0 5000.0 7.905138e-03 7.739137e-02
21 -1 0 0 103 101  0.000000e+00  0.000000e+00  3.764096e+03  3.764096e+03 0.0 0.0 9.0
21 -1 0 0 101 102  0.000000e+00  0.000000e+00 -1.502299e+03  1.502299e+03 0.0 0.0 9.0
21  1 1 2 103 102 -2.336351e+03  3.152224e+02  1.475590e+03  2.781234e+03 0.0 0.0 9.0
22  1 1 2   0   0  2.336351e+03 -3.152224e+02  7.862079e+02  2.485160e+03 0.0 0.0 9.0
#pdf 21 21 5.790917e-01 2.311229e-01 5000.0 8.911624e-04 8.444530e-02
</event>
<event>
4 6 1.0 5000.0 7.905138e-03 7.739137e-02
21 -1 0 0 101 102  0.000000e+00  0.000000e+00  3.526550e+03  3.526550e+03 0.0 0.0 9.0
21 -1 0 0 103 101  0.000000e+00  0.000000e+00 -1.817178e+03  1.817178e+03 0.0 0.0 9.0
21  1 1 2 103 102  1.840155e+03 -7.897303e+01 -9.782772e+02  2.085529e+03 0.0 0.0 9.0
22  1 1 2   0   0 -1.840155e+03  7.897303e+01  2.687648e+03  3.258199e+03 0.0 0.0 9.0
#pdf 21 21 5.425461e-01 2.795659e-01 5000.0 1.542002e-03 4.627157e-02
</event>
<event>
4 6 1.0 5000.0 7.905138e-03 7.739137e-02
21 -1 0 0 101 102  0.000000e+00  0.000000e+00  3.021196e+03  3.021196e+03 0.0 0.0 9.0
21 -1 0 0 103 101  0.000000e+00  0.000000e+00 -1.725685e+03  1.725685e+03 0.0 0.0 9.0
21  1 1 2 103 102 -8.206851e+01  8.810472e+02  2.835729e+03  2.970579e+03 0.0 0.0 9.0
22  1 1 2   0   0  8.206851e+01 -8.810472e+02 -1.540218e+03  1.776303e+03 0.0 0.0 9.0
#pdf 21 21 4.647994e-01 2.654900e-01 5000.0 4.537509e-03 5.502096e-02
</event>
<event>
4 6 1.0 5000.0 7.905138e-03 7.739137e-02
21 -1 0 0 103 101  0.000000e+00  0.000000e+00  3.004245e+03  3.004245e+03 0.0 0.0 9.0
21 -1 0 0 101 102  0.000000e+00  0.000000e+00 -1.900143e+03  1.900143e+03 0.0 0.0 9.0
21  1 1 2 103 102  9.893604e+02 -1.751907e+03  1.874598e+03  2.749933e+03 0.0 0.0 9.0
22  1 1 2   0   0 -9.893604e+02  1.751907e+03 -7.704964e+02  2.154455e+03 0.0 0.0 9.0
#pdf 21 21 4.621915e-01 2.923297e-01 5000.0 4.696653e-03 3.960436e-02
</event>
<event>
4 6 1.0 5000.0 7.905138e-03 7.739137e-02
21 -1 0 0 101 102  0.000000e+00  0.000000e+00  2.614255e+03  2.614255e+03 0.0 0.0 9.0
21 -1 0 0 103 101  0.000000e+00  0.000000e+00 -2.095642e+03  2.095642e+03 0.0 0.0 9.0
22  1 1 2   0   0 -1.167983e+03 -9.606167e+02 -1.538121e+03  2.157031e+03 0.0 0.0 9.0
21  1 1 2 103 102  1.167983e+03  9.606167e+02  2.056734e+03  2.552866e+03 0.0 0.0 9.0
#pdf 21 21 4.021931e-01 3.224065e-01 5000.0 1.019440e-02 2.737437e-02
</event>
<event>
4 6 1.0 5000.0 7.905138e-03 7.739137e-02
21 -1 0 0 101 102  0.000000e+00  0.000000e+00  1.892930e+03  1.892930e+03 0.0 0.0 9.0
21 -1 0 0 103 101  0.000000e+00  0.000000e+00 -2.979360e+03  2.979360e+03 0.0 0.0 9.0
22  1 1 2   0   0 -1.699550e+03  3.703240e+02 -2.201795e+03  2.805977e+03 0.0 0.0 9.0
21  1 1 2 103 102  1.699550e+03 -3.703240e+02  1.115365e+03  2.066313e+03 0.0 0.0 9.0
#pdf 21 21 2.912200e-01 4.583630e-01 5000.0 4.014154e-02 4.942179e-03
</event>
<event>
4 6 1.0 5000.0 7.905138e-03 7.739137e-02
21 -1 0 0 103 101  0.000000e+00  0.000000e+00  2.499036e+03  2.499036e+03 0.0 0.0 9.0
21 -1 0 0 101 102  0.000000e+00  0.000000e+00 -2.472144e+03  2.472144e+03 0.0 0.0 9.0
22  1 1 2   0   0  1.154654e+03  1.788663e+03  1.296210e+03  2.492529e+03 0.0 0.0 9.0
21  1 1 2 103 102 -1.154654e+03 -1.788663e+03 -1.269318e+03  2.478651e+03 0.0 0.0 9.0
#pdf 21 21 3.844671e-01 3.803299e-01 5000.0 1.274202e-02 1.342047e-02
</event>
<event>
4 6 1.0 5000.0 7.905138e-03 7.739137e-02
21 -1 0 0 103 101  0.000000e+00  0.000000e+00  2.546504e+03  2.546504e+03 0.0 0.0 9.0
21 -1 0 0 101 102  0.000000e+00  0.000000e+00 -1.744010e+03  1.744010e+03 0.0 0.0 9.0
22  1 1 2   0   0 -1.362321e+03  1.505817e+03 -1.725513e+02  2.037935e+03 0.0 0.0 9.0
21  1 1 2 103 102  1.362321e+03 -1.505817e+03  9.750449e+02  2.252580e+03 0.0 0.0 9.0
#pdf 21 21 3.917698e-01 2.683093e-01 5000.0 1.162174e-02 5.314007e-02
</event>
<event>
4 6 1.0 5000.0 7.905138e-03 7.739137e-02
21 -1 0 0 103 101  0.000000e+00  0.000000e+00  2.410864e+03  2.410864e+03 0.0 0.0 9.0
21 -1 0 0 101 102  0.000000e+00  0.000000e+00 -2.742307e+03  2.742307e+03 0.0 0.0 9.0
21  1 1 2 103 102 -1.290220e+03 -1.702786e+03 -1.599486e+03  2.668802e+03 0.0 0.0 9.0
22  1 1 2   0   0  1.290220e+03  1.702786e+03  1.268043e+03  2.484368e+03 0.0 0.0 9.0
#pdf 21 21 3.709021e-01 4.218933e-01 5000.0 1.506667e-02 7.936084e-03
</event>
<event>
4 6 1.0 5000.0 7.905138e-03 7.739137e-02
21 -1 0 0 103 101  0.000000e+00  0.000000e+00  1.545675e+03  1.545675e+03 0.0 0.0 9.0
21 -1 0 0 101 102  0.000000e+00  0.000000e+00 -4.048395e+03  4.048395e+03 0.0 0.0 9.0
22  1 1 2   0   0  1.204809e+03 -5.078836e+02  1.133195e+03  1.730214e+03 0.0 0.0 9.0
21  1 1 2 103 102 -1.204809e+03  5.078836e+02 -3.635914e+03  3.863856e+03 0.0 0.0 9.0
#pdf 21 21 2.377962e-01 6.228299e-01 5000.0 7.772561e-02 4.421025e-04
</event>
<event>
4 6 1.0 5000.0 7.905138e-03 7.739137e-02
21 -1 0 0 103 101  0.000000e+00  0.000000e+00  2.865908e+03  2.865908e+03 0.0 0.0 9.0
21 -1 0 0 101 102  0.000000e+00  0.000000e+00 -2.100494e+03  2.100494e+03 0.0 0.0 9.0
22  1 1 2   0   0  2.018372e+03  5.559530e+02 -9.121819e+02  2.283634e+03 0.0 0.0 9.0
21  1 1 2 103 102 -2.018372e+03 -5.559530e+02  1.677597e+03  2.682767e+03 0.0 0.0 9.0
#pdf 21 21 4.409090e-01 3.231529e-01 5000.0 6.216453e-03 2.712554e-02
</event>
<event>
4 6 1.0 5000.0 7.905138e-03 7.739137e-02
21 -1 0 0 103 101  0.000000e+00  0.000000e+00  1.817453e+03  1.817453e+03 0.0 0.0 9.0
21 -1 0 0 101 102  0.000000e+00  0.000000e+00 -3.736598e+03  3.736598e+03 0.0 0.0 9.0
21  1 1 2 103 102  1.970610e+03  1.679057e+03 -1.276682e+03  2.886599e+03 0.0 0.0 9.0
22  1 1 2   0   0 -1.970610e+03 -1.679057e+03 -6.424630e+02  2.667452e+03 0.0 0.0 9.0
#pdf 21 21 2.796082e-01 5.748612e-01 5000.0 4.624751e-02 9.510559e-04
</event>
<event>
4 6 1.0 5000.0 7.905138e-03 7.739137e-02
21 -1 0 0 101 102  0.000000e+00  0.000000e+00  2.576674e+03  2.576674e+03 0.0 0.0 9.0
21 -1 0 0 103 101  0.000000e+00  0.000000e+00 -2.495993e+03  2.495993e+03 0.0 0.0 9.0
21  1 1 2 103 102 -1.451147e+02 -1.256949e+03 -2.157751e+03  2.501373e+03 0.0 0.0 9.0
22  1 1 2   0   0  1.451147e+02  1.256949e+03  2.238431e+03  2.571294e+03 0.0 0.0 9.0
#pdf 21 21 3.964113e-01 3.839989e-01 5000.0 1.096327e-02 1.281730e-02
</event>
<event>
4 6 1.0 5000.0 7.905138e-03 7.739137e-02
21 -1 0 0 101 102  0.000000e+00  0.000000e+00  3.521972e+03  3.521972e+03 0.0 0.0 9.0
21 -1 0 0 103 101  0.000000e+00  0.000000e+00 -1.764867e+03  1.764867e+03 0.0 0.0 9.0
22  1 1 2   0   0  1.978016e+03 -1.105421e+02  2.483400e+03  3.176798e+03 0.0 0.0 9.0
21  1 1 2 103 102 -1.978016e+03  1.105421e+02 -7.262949e+02  2.110041e+03 0.0 0.0 9.0
#pdf 21 21 5.418419e-01 2.715180e-01 5000.0 1.557771e-03 5.108304e-02
</event>
<event>
4 6 1.0 5000.0 7.905138e-03 7.739137e-02
21 -1 0 0 101 102  0.000000e+00  0.000000e+00  3.024232e+03  3.024232e+03 0.0 0.0 9.0
21 -1 0 0 103 101  0.000000e+00  0.000000e+00 -2.143094e+03  2.143094e+03 0.0 0.0 9.0
21  1 1 2 103 102  2.189638e+03  1.003871e+03 -3.956579e+02  2.441069e+03 0.0 0.0 9.0
22  1 1 2   0   0 -2.189638e+03 -1.003871e+03  1.276795e+03  2.726257e+03 0.0 0.0 9.0
#pdf 21 21 4.652664e-01 3.297068e-01 5000.0 4.509561e-03 2.503596e-02
</event>
<event>
4 6 1.0 5000.0 7.905138e-03 7.739137e-02
21 -1 0 0 101 102  0.000000e+00  0.000000e+00  2.288499e+03  2.288499e+03 0.0 0.0 9.0
21 -1 0 0 103 101  0.000000e+00  0.000000e+00 -2.572363e+03  2.572363e+03 0.0 0.0 9.0
22  1 1 2   0   0  9.240634e+02 -1.690487e+03 -1.619312e+03  2.516707e+03 0.0 0.0 9.0
21  1 1 2 103 102 -9.240634e+02  1.690487e+03  1.335449e+03  2.344155e+03 0.0 0.0 9.0
#pdf 21 21 3.520768e-01 3.957482e-01 5000.0 1.902500e-02 1.105499e-02
</event>
<event>
4 6 1.0 5000.0 7.905138e-03 7.739137e-02
21 -1 0 0 103 101  0.000000e+00  0.000000e+00  2.125522e+03  2.125522e+03 0.0 0.0 9.0
21 -1 0 0 101 102  0.000000e+00  0.000000e+00 -2.269409e+03  2.269409e+03 0.0 0.0 9.0
21  1 1 2 103 102 -1.791204e+03  1.254990e+03 -2.727157e+02  2.204039e+03 0.0 0.0 9.0
22  1 1 2   0   0  1.791204e+03 -1.254990e+03  1.288287e+02  2.190893e+03 0.0 0.0 9.0
#pdf 21 21 3.270034e-01 3.491399e-01 5000.0 2.587787e-02 1.972754e-02
</event>
<event>
4 6 1.0 5000.0 7.905138e-03 7.739137e-02
21 -1 0 0 103 101  0.000000e+00  0.000000e+00  2.279789e+03  2.279789e+03 0.0 0.0 9.0
21 -1 0 0 101 102  0.000000e+00  0.000000e+00 -2.896377e+03  2.896377e+03 0.0 0.0 9.0
22  1 1 2   0   0  1.261681e+02 -1.606309e+03 -2.324394e+03  2.828242e+03 0.0 0.0 9.0
21  1 1 2 103 102 -1.261681e+02  1.606309e+03  1.707806e+03  2.347924e+03 0.0 0.0 9.0
#pdf 21 21 3.507367e-01 4.455965e-01 5000.0 1.934314e-02 5.840716e-03
</event>
<event>
4 6 1.0 5000.0 7.905138e-03 7.739137e-02
21 -1 0 0 103 101  0.000000e+00  0.000000e+00  2.592708e+03  2.592708e+03 0.0 0.0 9.0
21 -1 0 0 101 102  0.000000e+00  0.000000e+00 -1.713799e+03  1.713799e+03 0.0 0.0 9.0
21  1 1 2 103 102  7.676823e+02 -4.468644e+02  2.392192e+03  2.551785e+03 0.0 0.0 9.0
22  1 1 2   0   0 -7.676823e+02  4.468644e+02 -1.513283e+03  1.754722e+03 0.0 0.0 9.0
#pdf 21 21 3.988781e-01 2.636614e-01 5000.0 1.062867e-02 5.628017e-02
</event>
<event>
4 6 1.0 5000.0 7.905138e-03 7.739137e-02
21 -1 0 0 101 102  0.000000e+00  0.000000e+00  2.234715e+03  2.234715e+03 0.0 0.0 9.0
21 -1 0 0 103 101  0.000000e+00  0.000000e+00 -2.368392e+03  2.368392e+03 0.0 0.0 9.0
22  1 1 2   0   0  1.787132e+03 -5.143374e+02 -1.421773e+03  2.340902e+03 0.0 0.0 9.0
21  1 1 2 103 102 -1.787132e+03  5.143374e+02  1.288095e+03  2.262205e+03 0.0 0.0 9.0
#pdf 21 21 3.438023e-01 3.643680e-01 5000.0 2.106044e-02 1.634807e-02
</event>
<event>
4 6 1.0 5000.0 7.905138e-03 7.739137e-02
21 -1 0 0 101 102  0.000000e+00  0.000000e+00  2.475383e+03  2.475383e+03 0.0 0.0 9.0
21 -1 0 0 103 101  0.000000e+00  0.000000e+00 -2.482120e+03  2.482120e+03 0.0 0.0 9.0
22  1 1 2   0   0 -4.818223e+02  8.646421e+01  2.426566e+03  2.475450e+03 0.0 0.0 9.0
21  1 1 2 103 102  4.818223e+02 -8.646421e+01 -2.433302e+03  2.482053e+03 0.0 0.0 9.0
#pdf 21 21 3.808282e-01 3.818646e-01 5000.0 1.333723e-02 1.316542e-02
</event>
<event>
4 6 1.0 5000.0 7.905138e-03 7.739137e-02
21 -1 0 0 103 101  0.000000e+00  0.000000e+00  3.898953e+03  3.898953e+03 0.0 0.0 9.0
21 -1 0 0 101 102  0.000000e+00  0.000000e+00 -1.564285e+03  1.564285e+03 0.0 0.0 9.0
21  1 1 2 103 102 -9.197172e+02  1.454578e+03 -7.918399e+02  1.894383e+03 0.0 0.0 9.0
22  1 1 2   0   0  9.197172e+02 -1.454578e+03  3.126507e+03  3.568855e+03 0.0 0.0 9.0
#pdf 21 21 5.998389e-01 2.406593e-01 5000.0 6.435185e-04 7.499417e-02
</event>
<event>
4 6 1.0 5000.0 7.905138e-03 7.739137e-02
21 -1 0 0 101 102  0.000000e+00  0.000000e+00  3.298849e+03  3.298849e+03 0.0 0.0 9.0
21 -1 0 0 103 101  0.000000e+00  0.000000e+00 -1.884398e+03  1.884398e+03 0.0 0.0 9.0
22  1 1 2   0   0 -1.043899e+03  2.225768e+03  2.754152e+02  2.473787e+03 0.0 0.0 9.0
21  1 1 2 103 102  1.043899e+03 -2.225768e+03  1.139036e+03  2.709460e+03 0.0 0.0 9.0
#pdf 21 21 5.075152e-01 2.899073e-01 5000.0 2.539619e-03 4.078497e-02
</event>
<event>
4 6 1.0 5000.0 7.905138e-03 7.739137e-02
21 -1 0 0 103 101  0.000000e+00  0.000000e+00  2.718559e+03  2.718559e+03 0.0 0.0 9.0
21 -1 0 0 101 102  0.000000e+00  0.000000e+00 -2.073549e+03  2.073549e+03 0.0 0.0 9.0
22  1 1 2   0   0  5.608911e+02 -2.301092e+03  4.896771e+02  2.418555e+03 0.0 0.0 9.0
21  1 1 2 103 102 -5.608911e+02  2.301092e+03  1.553324e+02  2.373553e+03 0.0 0.0 9.0
#pdf 21 21 4.182398e-01 3.190076e-01 5000.0 8.314747e-03 2.853793e-02
</event>
<event>
4 6 1.0 5000.0 7.905138e-03 7.739137e-02
21 -1 0 0 101 102  0.000000e+00  0.000000e+00  2.360262e+03  2.360262e+03 0.0 0.0 9.0
21 -1 0 0 103 101  0.000000e+00  0.000000e+00 -2.412283e+03  2.412283e+03 0.0 0.0 9.0
21  1 1 2 103 102  1.511420e+03 -1.480833e+02 -1.866582e+03  2.406334e+03 0.0 0.0 9.0
22  1 1 2   0   0 -1.511420e+03  1.480833e+02  1.814561e+03  2.366210e+03 0.0 0.0 9.0
#pdf 21 21 3.631172e-01 3.711204e-01 5000.0 1.660203e-02 1.502630e-02
</event>
<event>
4 6 1.0 5000.0 7.905138e-03 7.739137e-02
21 -1 0 0 101 102  0.000000e+00  0.000000e+00  2.560908e+03  2.560908e+03 0.0 0.0 9.0
21 -1 0 0 103 101  0.000000e+00  0.000000e+00 -2.487877e+03  2.487877e+03 0.0 0.0 9.0
21  1 1 2 103 102  1.462531e+03 -1.909370e+03 -7.294203e+02  2.513313e+03 0.0 0.0 9.0
22  1 1 2   0   0 -1.462531e+03  1.909370e+03  8.024512e+02  2.535472e+03 0.0 0.0 9.0
#pdf 21 21 3.939859e-01 3.827503e-01 5000.0 1.130247e-02 1.301999e-02
</event>
<event>
4 6 1.0 5000.0 7.905138e-03 7.739137e-02
21 -1 0 0 103 101  0.000000e+00  0.000000e+00  2.333779e+03  2.333779e+03 0.0 0.0 9.0
21 -1 0 0 101 102  0.000000e+00  0.000000e+00 -3.019142e+03  3.019142e+03 0.0 0.0 9.0
21  1 1 2 103 102  1.695621e+03 -1.045400e+03 -2.111669e+03  2.902953e+03 0.0 0.0 9.0
22  1 1 2   0   0 -1.695621e+03  1.045400e+03  1.426306e+03  2.449968e+03 0.0 0.0 9.0
#pdf 21 21 3.590429e-01 4.644834e-01 5000.0 1.745184e-02 4.556512e-03
</event>
<event>
4 6 1.0 5000.0 7.905138e-03 7.739137e-02
21 -1 0 0 101 102  0.000000e+00  0.000000e+00  3.335188e+03  3.335188e+03 0.0 0.0 9.0
21 -1 0 0 103 101  0.000000e+00  0.000000e+00 -1.748388e+03  1.748388e+03 0.0 0.0 9.0
22  1 1 2   0   0 -1.925783e+03 -8.278094e+02 -4.685237e+02  2.147888e+03 0.0 0.0 9.0
21  1 1 2 103 102  1.925783e+03  8.278094e+02  2.055324e+03  2.935688e+03 0.0 0.0 9.0
#pdf 21 21 5.131059e-01 2.689827e-01 5000.0 2.349394e-03 5.270116e-02
</event>
<event>
4 6 1.0 5000.0 7.905138e-03 7.739137e-02
21 -1 0 0 103 101  0.000000e+00  0.000000e+00  2.945952e+03  2.945952e+03 0.0 0.0 9.0
21 -1 0 0 101 102  0.000000e+00  0.000000e+00 -2.162313e+03  2.162313e+03 0.0 0.0 9.0
22  1 1 2   0   0 -5.741721e+02 -2.033068e+03  1.789313e+03  2.768516e+03 0.0 0.0 9.0
21  1 1 2 103 102  5.741721e+02  2.033068e+03 -1.005674e+03  2.339748e+03 0.0 0.0 9.0
#pdf 21 21 4.532234e-01 3.326635e-01 5000.0 5.290689e-03 2.414497e-02
</event>
<event>
4 6 1.0 5000.0 7.905138e-03 7.739137e-02
21 -1 0 0 103 101  0.000000e+00  0.000000e+00  3.576302e+03  3.576302e+03 0.0 0.0 9.0
21 -1 0 0 101 102  0.000000e+00  0.000000e+00 -1.739721e+03  1.739721e+03 0.0 0.0 9.0
21  1 1 2 103 102 -3.500877e+02  1.017769e+03  3.316124e+03  3.486416e+03 0.0 0.0 9.0
22  1 1 2   0   0  3.500877e+02 -1.017769e+03 -1.479542e+03  1.829607e+03 0.0 0.0 9.0
#pdf 21 21 5.502003e-01 2.676493e-01 5000.0 1.377530e-03 5.357401e-02
</event>
<event>
4 6 1.0 5000.0 7.905138e-03 7.739137e-02
21 -1 0 0 103 101  0.000000e+00  0.000000e+00  2.749785e+03  2.749785e+03 0.0 0.0 9.0
21 -1 0 0 101 102  0.000000e+00  0.000000e+00 -2.168812e+03  2.168812e+03 0.0 0.0 9.0
21  1 1 2 103 102  3.243774e+02  4.823066e+02  2.679112e+03  2.741438e+03 0.0 0.0 9.0
22  1 1 2   0   0 -3.243774e+02 -4.823066e+02 -2.098138e+03  2.177160e+03 0.0 0.0 9.0
#pdf 21 21 4.230439e-01 3.336634e-01 5000.0 7.820087e-03 2.385033e-02
</event>
<event>
4 6 1.0 5000.0 7.905138e-03 7.739137e-02
21 -1 0 0 103 101  0.000000e+00  0.000000e+00  1.975373e+03  1.975373e+03 0.0 0.0 9.0
21 -1 0 0 101 102  0.000000e+00  0.000000e+00 -2.864418e+03  2.864418e+03 0.0 0.0 9.0
21  1 1 2 103 102  1.179073e+03  6.691394e+02 -2.432926e+03  2.785156e+03 0.0 0.0 9.0
22  1 1 2   0   0 -1.179073e+03 -6.691394e+02  1.543880e+03  2.054636e+03 0.0 0.0 9.0
#pdf 21 21 3.039035e-01 4.406798e-01 5000.0 3.436505e-02 6.235093e-03
</event>
<event>
4 6 1.0 5000.0 7.905138e-03 7.739137e-02
21 -1 0 0 101 102  0.000000e+00  0.000000e+00  2.461880e+03  2.461880e+03 0.0 0.0 9.0
21 -1 0 0 103 101  0.000000e+00  0.000000e+00 -2.510974e+03  2.510974e+03 0.0 0.0 9.0
21  1 1 2 103 102  2.104729e+03  1.622167e+01 -1.348080e+03  2.499493e+03 0.0 0.0 9.0
22  1 1 2   0   0 -2.104729e+03 -1.622167e+01  1.298986e+03  2.473361e+03 0.0 0.0 9.0
#pdf 21 21 3.787508e-01 3.863037e-01 5000.0 1.368683e-02 1.245052e-02
</event>
<event>
4 6 1.0 5000.0 7.905138e-03 7.739137e-02
21 -1 0 0 101 102  0.000000e+00  0.000000e+00  2.306654e+03  2.306654e+03 0.0 0.0 9.0
21 -1 0 0 103 101  0.000000e+00  0.000000e+00 -2.880014e+03  2.880014e+03 0.0 0.0 9.0
22  1 1 2   0   0  9.301107e+02  2.094736e+03  8.996467e+02  2.462192e+03 0.0 0.0 9.0
21  1 1 2 103 102 -9.301107e+02 -2.094736e+03 -1.473007e+03  2.724477e+03 0.0 0.0 9.0
#pdf 21 21 3.548698e-01 4.430791e-01 5000.0 1.837413e-02 6.041267e-03
</event>
<event>
4 6 1.0 5000.0 7.905138e-03 7.739137e-02
21 -1 0 0 103 101  0.000000e+00  0.000000e+00  4.460382e+03  4.460382e+03 0.0 0.0 9.0
21 -1 0 0 101 102  0.000000e+00  0.000000e+00 -1.252346e+03  1.252346e+03 0.0 0.0 9.0
22  1 1 2   0   0 -1.178060e+03  4.949771e+02  4.006914e+03  4.205733e+03 0.0 0.0 9.0
21  1 1 2 103 102  1.178060e+03 -4.949771e+02 -7.988780e+02  1.506995e+03 0.0 0.0 9.0
#pdf 21 21 6.862126e-01 1.926686e-01 5000.0 1.420155e-04 1.384406e-01
</event>
<event>
4 6 1.0 5000.0 7.905138e-03 7.739137e-02
21 -1 0 0 103 101  0.000000e+00  0.000000e+00  3.268381e+03  3.268381e+03 0.0 0.0 9.0
21 -1 0 0 101 102  0.000000e+00  0.000000e+00 -1.766475e+03  1.766475e+03 0.0 0.0 9.0
21  1 1 2 103 102  1.090628e+03  3.317817e+02  2.967022e+03  3.178485e+03 0.0 0.0 9.0
22  1 1 2   0   0 -1.090628e+03 -3.317817e+02 -1.465116e+03  1.856371e+03 0.0 0.0 9.0
#pdf 21 21 5.028278e-01 2.717654e-01 5000.0 2.710064e-03 5.092792e-02
</event>
<event>
4 6 1.0 5000.0 7.905138e-03 7.739137e-02
21 -1 0 0 101 102  0.000000e+00  0.000000e+00  2.017588e+03  2.017588e+03 0.0 0.0 9.0
21 -1 0 0 103 101  0.000000e+00  0.000000e+00 -3.040180e+03  3.040180e+03 0.0 0.0 9.0
21  1 1 2 103 102  6.727054e+02 -1.754106e+03  1.136554e+03  2.195718e+03 0.0 0.0 9.0
22  1 1 2   0   0 -6.727054e+02  1.754106e+03 -2.159146e+03  2.862050e+03 0.0 0.0 9.0
#pdf 21 21 3.103982e-01 4.677199e-01 5000.0 3.173923e-02 4.365227e-03
</event>
<event>
4 6 1.0 5000.0 7.905138e-03 7.739137e-02
21 -1 0 0 101 102  0.000000e+00  0.000000e+00  2.219424e+03  2.219424e+03 0.0 0.0 9.0
21 -1 0 0 103 101  0.000000e+00  0.000000e+00 -2.243091e+03  2.243091e+03 0.0 0.0 9.0
21  1 1 2 103 102 -2.033438e+03  1.250718e+02 -9.217137e+02  2.236083e+03 0.0 0.0 9.0
22  1 1 2   0   0  2.033438e+03 -1.250718e+02  8.980459e+02  2.226432e+03 0.0 0.0 9.0
#pdf 21 21 3.414498e-01 3.450910e-01 5000.0 2.167489e-02 2.073124e-02
</event>
<event>
4 6 1.0 5000.0 7.905138e-03 7.739137e-02
21 -1 0 0 103 101  0.000000e+00  0.000000e+00  2.945087e+03  2.945087e+03 0.0 0.0 9.0
21 -1 0 0 101 102  0.000000e+00  0.000000e+00 -2.168974e+03  2.168974e+03 0.0 0.0 9.0
22  1 1 2   0   0  9.774923e+02  1.556659e+03 -1.366958e+03  2.290688e+03 0.0 0.0 9.0
21  1 1 2 103 102 -9.774923e+02 -1.556659e+03  2.143071e+03  2.823372e+03 0.0 0.0 9.0
#pdf 21 21 4.530903e-01 3.336883e-01 5000.0 5.299943e-03 2.384304e-02
</event>
<event>
4 6 1.0 5000.0 7.905138e-03 7.739137e-02
21 -1 0 0 101 102  0.000000e+00  0.000000e+00  2.146181e+03  2.146181e+03 0.0 0.0 9.0
21 -1 0 0 103 101  0.000000e+00  0.000000e+00 -2.978292e+03  2.978292e+03 0.0 0.0 9.0
21  1 1 2 103 102  1.166873e+03  2.170223e+02 -2.678402e+03  2.929596e+03 0.0 0.0 9.0
22  1 1 2   0   0 -1.166873e+03 -2.170223e+02  1.846292e+03  2.194877e+03 0.0 0.0 9.0
#pdf 21 21 3.301817e-01 4.581987e-01 5000.0 2.489080e-02 4.953017e-03
</event>
<event>
4 6 1.0 5000.0 7.905138e-03 7.739137e-02
21 -1 0 0 103 101  0.000000e+00  0.000000e+00  3.058752e+03  3.058752e+03 0.0 0.0 9.0
21 -1 0 0 101 102  0.000000e+00  0.000000e+00 -1.817678e+03  1.817678e+03 0.0 0.0 9.0
21  1 1 2 103 102 -7.178454e+02 -4.050084e+02  2.904943e+03  3.019607e+03 0.0 0.0 9.0
22  1 1 2   0   0  7.178454e+02  4.050084e+02 -1.663868e+03  1.856823e+03 0.0 0.0 9.0
#pdf 21 21 4.705773e-01 2.796427e-01 5000.0 4.202316e-03 4.622783e-02
</event>
<event>
4 6 1.0 5000.0 7.905138e-03 7.739137e-02
21 -1 0 0 101 102  0.000000e+00  0.000000e+00  2.210214e+03  2.210214e+03 0.0 0.0 9.0
21 -1 0 0 103 101  0.000000e+00  0.000000e+00 -2.757684e+03  2.757684e+03 0.0 0.0 9.0
21  1 1 2 103 102  4.451783e+02  2.171801e+03 -1.366747e+03  2.604400e+03 0.0 0.0 9.0
22  1 1 2   0   0 -4.451783e+02 -2.171801e+03  8.192778e+02  2.363497e+03 0.0 0.0 9.0
#pdf 21 21 3.400330e-01 4.242590e-01 5000.0 2.205398e-02 7.699176e-03
</event>
<event>
4 6 1.0 5000.0 7.905138e-03 7.739137e-02
21 -1 0 0 103 101  0.000000e+00  0.000000e+00  1.856262e+03  1.856262e+03 0.0 0.0 9.0
21 -1 0 0 101 102  0.000000e+00  0.000000e+00 -3.270224e+03  3.270224e+03 0.0 0.0 9.0
22  1 1 2   0   0 -2.195804e+03 -4.730444e+02 -1.760294e+03  2.853763e+03 0.0 0.0 9.0
21  1 1 2 103 102  2.195804e+03  4.730444e+02  3.463315e+02  2.272724e+03 0.0 0.0 9.0
#pdf 21 21 2.855788e-01 5.031114e-01 5000.0 4.298068e-02 2.699441e-03
</event>
<event>
4 6 1.0 5000.0 7.905138e-03 7.739137e-02
21 -1 0 0 103 101  0.000000e+00  0.000000e+00  2.746813e+03  2.746813e+03 0.0 0.0 9.0
21 -1 0 0 101 102  0.000000e+00  0.000000e+00 -2.441532e+03  2.441532e+03 0.0 0.0 9.0
21  1 1 2 103 102  1.389154e+02 -1.842455e+03  1.970313e+03  2.701124e+03 0.0 0.0 9.0
22  1 1 2   0   0 -1.389154e+02  1.842455e+03 -1.665032e+03  2.487221e+03 0.0 0.0 9.0
#pdf 21 21 4.225867e-01 3.756203e-01 5000.0 7.866004e-03 1.422582e-02
</event>
<event>
4 6 1.0 5000.0 7.905138e-03 7.739137e-02
21 -1 0 0 101 102  0.000000e+00  0.000000e+00  2.970103e+03  2.970103e+03 0.0 0.0 9.0
21 -1 0 0 103 101  0.000000e+00  0.000000e+00 -2.246581e+03  2.246581e+03 0.0 0.0 9.0
21  1 1 2 103 102  1.142837e+03 -7.449394e+02  2.576695e+03  2.915540e+03 0.0 0.0 9.0
22  1 1 2   0   0 -1.142837e+03  7.449394e+02 -1.853174e+03  2.301145e+03 0.0 0.0 9.0
#pdf 21 21 4.569389e-01 3.456279e-01 5000.0 5.036831e-03 2.059555e-02
</event>
<event>
4 6 1.0 5000.0 7.905138e-03 7.739137e-02
21 -1 0 0 101 102  0.000000e+00  0.000000e+00  2.704292e+03  2.704292e+03 0.0 0.0 9.0
21 -1 0 0 103 101  0.000000e+00  0.000000e+00 -2.287302e+03  2.287302e+03 0.0 0.0 9.0
21  1 1 2 103 102  1.184743e+03 -1.467578e+03 -1.418343e+03  2.359893e+03 0.0 0.0 9.0
22  1 1 2   0   0 -1.184743e+03  1.467578e+03  1.835333e+03  2.631700e+03 0.0 0.0 9.0
#pdf 21 21 4.160449e-01 3.518926e-01 5000.0 8.550297e-03 1.906850e-02
</event>
<event>
4 6 1.0 5000.0 7.905138e-03 7.739137e-02
21 -1 0 0 103 101  0.000000e+00  0.000000e+00  1.635948e+03  1.635948e+03 0.0 0.0 9.0
21 -1 0 0 101 102  0.000000e+00  0.000000e+00 -3.469059e+03  3.469059e+03 0.0 0.0 9.0
22  1 1 2   0   0  4.012750e+02 -1.681884e+03  8.392795e+02  1.922016e+03 0.0 0.0 9.0
21  1 1 2 103 102 -4.012750e+02  1.681884e+03 -2.672390e+03  3.182990e+03 0.0 0.0 9.0
#pdf 21 21 2.516842e-01 5.337013e-01 5000.0 6.536285e-02 1.753962e-03
</event>
<event>
4 6 1.0 5000.0 7.905138e-03 7.739137e-02
21 -1 0 0 103 101  0.000000e+00  0.000000e+00  2.893201e+03  2.893201e+03 0.0 0.0 9.0
21 -1 0 0 101 102  0.000000e+00  0.000000e+00 -1.876874e+03  1.876874e+03 0.0 0.0 9.0
22  1 1 2   0   0  1.881519e+03  1.152748e+03 -2.585974e+02  2.221669e+03 0.0 0.0 9.0
21  1 1 2 103 102 -1.881519e+03 -1.152748e+03  1.274924e+03  2.548406e+03 0.0 0.0 9.0
#pdf 21 21 4.451078e-01 2.887499e-01 5000.0 5.879217e-03 4.136024e-02
</event>
<event>
4 6 1.0 5000.0 7.905138e-03 7.739137e-02
21 -1 0 0 101 102  0.000000e+00  0.000000e+00  2.984691e+03  2.984691e+03 0.0 0.0 9.0
21 -1 0 0 103 101  0.000000e+00  0.000000e+00 -2.097079e+03  2.097079e+03 0.0 0.0 9.0
22  1 1 2   0   0  1.219287e+03 -2.012338e+03  1.307357e+03  2.691718e+03 0.0 0.0 9.0
21  1 1 2 103 102 -1.219287e+03  2.012338e+03 -4.197454e+02  2.390052e+03 0.0 0.0 9.0
#pdf 21 21 4.591832e-01 3.226276e-01 5000.0 4.888437e-03 2.730040e-02
</event>
<event>
4 6 1.0 5000.0 7.905138e-03 7.739137e-02
21 -1 0 0 103 101  0.000000e+00  0.000000e+00  2.135406e+03  2.135406e+03 0.0 0.0 9.0
21 -1 0 0 101 102  0.000000e+00  0.000000e+00 -2.799606e+03  2.799606e+03 0.0 0.0 9.0
21  1 1 2 103 102  1.586386e+03 -5.170086e+02 -2.135793e+03  2.710264e+03 0.0 0.0 9.0
22  1 1 2   0   0 -1.586386e+03  5.170086e+02  1.471593e+03  2.224748e+03 0.0 0.0 9.0
#pdf 21 21 3.285240e-01 4.307087e-01 5000.0 2.540102e-02 7.086481e-03
</event>
<event>
4 6 1.0 5000.0 7.905138e-03 7.739137e-02
21 -1 0 0 103 101  0.000000e+00  0.000000e+00  2.373251e+03  2.373251e+03 0.0 0.0 9.0
21 -1 0 0 101 102  0.000000e+00  0.000000e+00 -2.599321e+03  2.599321e+03 0.0 0.0 9.0
21  1 1 2 103 102  1.827262e+03 -1.306704e+03  9.475317e+02  2.438069e+03 0.0 0.0 9.0
22  1 1 2   0   0 -1.827262e+03  1.306704e+03 -1.173602e+03  2.534503e+03 0.0 0.0 9.0
#pdf 21 21 3.651155e-01 3.998955e-01 5000.0 1.619745e-02 1.049357e-02
</event>
<event>
4 6 1.0 5000.0 7.905138e-03 7.739137e-02
21 -1 0 0 103 101  0.000000e+00  0.000000e+00  1.865915e+03  1.865915e+03 0.0 0.0 9.0
21 -1 0 0 101 102  0.000000e+00  0.000000e+00 -3.321689e+03  3.321689e+03 0.0 0.0 9.0
22  1 1 2   0   0  1.025762e+03 -9.739816e+02 -2.862353e+03  3.192788e+03 0.0 0.0 9.0
21  1 1 2 103 102 -1.025762e+03  9.739816e+02  1.406580e+03  1.994817e+03 0.0 0.0 9.0
#pdf 21 21 2.870639e-01 5.110291e-01 5000.0 4.221311e-02 2.418529e-03
</event>
<event>
4 6 1.0 5000.0 7.905138e-03 7.739137e-02
21 -1 0 0 103 101  0.000000e+00  0.000000e+00  1.350700e+03  1.350700e+03 0.0 0.0 9.0
21 -1 0 0 101 102  0.000000e+00  0.000000e+00 -3.574993e+03  3.574993e+03 0.0 0.0 9.0
22  1 1 2   0   0  4.684570e+02 -1.106973e+03 -3.173864e+03  3.393855e+03 0.0 0.0 9.0
21  1 1 2 103 102 -4.684570e+02  1.106973e+03  9.495709e+02  1.531838e+03 0.0 0.0 9.0
#pdf 21 21 2.078000e-01 5.499989e-01 5000.0 1.136452e-01 1.381674e-03
</event>
<event>
4 6 1.0 5000.0 7.905138e-03 7.739137e-02
21 -1 0 0 101 102  0.000000e+00  0.000000e+00  2.016475e+03  2.016475e+03 0.0 0.0 9.0
21 -1 0 0 103 101  0.000000e+00  0.000000e+00 -2.708974e+03  2.708974e+03 0.0 0.0 9.0
22  1 1 2   0   0 -4.026874e+02 -2.120323e+03  5.605642e+02  2.229834e+03 0.0 0.0 9.0
21  1 1 2 103 102  4.026874e+02  2.120323e+03 -1.253063e+03  2.495615e+03 0.0 0.0 9.0
#pdf 21 21 3.102269e-01 4.167653e-01 5000.0 3.180648e-02 8.472289e-03
</event>
<event>
4 6 1.0 5000.0 7.905138e-03 7.739137e-02
21 -1 0 0 101 102  0.000000e+00  0.000000e+00  2.914408e+03  2.914408e+03 0.0 0.0 9.0
21 -1 0 0 103 101  0.000000e+00  0.000000e+00 -2.260673e+03  2.260673e+03 0.0 0.0 9.0
22  1 1 2   0   0  2.134677e+03  6.280351e+02 -9.630166e+02  2.424598e+03 0.0 0.0 9.0
21  1 1 2 103 102 -2.134677e+03 -6.280351e+02  1.616752e+03  2.750484e+03 0.0 0.0 9.0
#pdf 21 21 4.483705e-01 3.477959e-01 5000.0 5.633538e-03 2.005589e-02
</event>
<event>
4 6 1.0 5000.0 7.905138e-03 7.739137e-02
21 -1 0 0 101 102  0.000000e+00  0.000000e+00  2.811234e+03  2.811234e+03 0.0 0.0 9.0
21 -1 0 0 103 101  0.000000e+00  0.000000e+00 -2.280687e+03  2.280687e+03 0.0 0.0 9.0
22  1 1 2   0   0 -1.493087e+03 -1.673993e+03 -9.158825e+02  2.422891e+03 0.0 0.0 9.0
21  1 1 2 103 102  1.493087e+03  1.673993e+03  1.446430e+03  2.669030e+03 0.0 0.0 9.0
#pdf 21 21 4.324976e-01 3.508749e-01 5000.0 6.926398e-03 1.931016e-02
</event>
<event>
4 6 1.0 5000.0 7.905138e-03 7.739137e-02
21 -1 0 0 101 102  0.000000e+00  0.000000e+00  2.267761e+03  2.267761e+03 0.0 0.0 9.0
21 -1 0 0 103 101  0.000000e+00  0.000000e+00 -2.555395e+03  2.555395e+03 0.0 0.0 9.0
22  1 1 2   0   0 -1.314295e+02 -1.249540e+03 -2.200866e+03  2.534252e+03 0.0 0.0 9.0
21  1 1 2 103 102  1.314295e+02  1.249540e+03  1.913232e+03  2.288904e+03 0.0 0.0 9.0
#pdf 21 21 3.488864e-01 3.931377e-01 5000.0 1.978913e-02 1.142358e-02
</event>
<event>
4 6 1.0 5000.0 7.905138e-03 7.739137e-02
21 -1 0 0 101 102  0.000000e+00  0.000000e+00  2.281550e+03  2.281550e+03 0.0 0.0 9.0
21 -1 0 0 103 101  0.000000e+00  0.000000e+00 -2.270169e+03  2.270169e+03 0.0 0.0 9.0
21  1 1 2 103 102  1.267559e+03  7.370551e+02  1.746256e+03  2.280212e+03 0.0 0.0 9.0
22  1 1 2   0   0 -1.267559e+03 -7.370551e+02 -1.734875e+03  2.271507e+03 0.0 0.0 9.0
#pdf 21 21 3.510077e-01 3.492567e-01 5000.0 1.927849e-02 1.969921e-02
</event>
<event>
4 6 1.0 5000.0 7.905138e-03 7.739137e-02
21 -1 0 0 101 102  0.000000e+00  0.000000e+00  1.797693e+03  1.797693e+03 0.0 0.0 9.0
21 -1 0 0 103 101  0.000000e+00  0.000000e+00 -2.867936e+03  2.867936e+03 0.0 0.0 9.0
22  1 1 2   0   0 -1.458806e+02 -1.880103e+03 -1.834523e+03  2.630883e+03 0.0 0.0 9.0
21  1 1 2 103 102  1.458806e+02  1.880103e+03  7.642792e+02  2.034746e+03 0.0 0.0 9.0
#pdf 21 21 2.765681e-01 4.412210e-01 5000.0 4.800975e-02 6.191124e-03
</event>
<event>
4 6 1.0 5000.0 7.905138e-03 7.739137e-02
21 -1 0 0 101 102  0.000000e+00  0.000000e+00  2.588588e+03  2.588588e+03 0.0 0.0 9.0
21 -1 0 0 103 101  0.000000e+00  0.000000e+00 -2.367477e+03  2.367477e+03 0.0 0.0 9.0
21  1 1 2 103 102 -2.037026e+03  1.111524e+03 -7.525476e+02  2.439526e+03 0.0 0.0 9.0
22  1 1 2   0   0  2.037026e+03 -1.111524e+03  9.736592e+02  2.516539e+03 0.0 0.0 9.0
#pdf 21 21 3.982444e-01 3.642272e-01 5000.0 1.071367e-02 1.637655e-02
</event>
<event>
4 6 1.0 5000.0 7.905138e-03 7.739137e-02
21 -1 0 0 103 101  0.000000e+00  0.000000e+00  1.445407e+03  1.445407e+03 0.0 0.0 9.0
21 -1 0 0 101 102  0.000000e+00  0.000000e+00 -3.201814e+03  3.201814e+03 0.0 0.0 9.0
22  1 1 2   0   0 -1.879797e+03  9.862602e+02 -5.015895e+02  2.181270e+03 0.0 0.0 9.0
21  1 1 2 103 102  1.879797e+03 -9.862602e+02 -1.254818e+03  2.465951e+03 0.0 0.0 9.0
#pdf 21 21 2.223703e-01 4.925868e-01 5000.0 9.436734e-02 3.120598e-03
</event>
<event>
4 6 1.0 5000.0 7.905138e-03 7.739137e-02
21 -1 0 0 101 102  0.000000e+00  0.000000e+00  2.655393e+03  2.655393e+03 0.0 0.0 9.0
21 -1 0 0 103 101  0.000000e+00  0.000000e+00 -2.269355e+03  2.269355e+03 0.0 0.0 9.0
22  1 1 2   0   0 -4.263074e+02 -2.654402e+02  2.603316e+03  2.651311e+03 0.0 0.0 9.0
21  1 1 2 103 102  4.263074e+02  2.654402e+02 -2.217277e+03  2.273437e+03 0.0 0.0 9.0
#pdf 21 21 4.085220e-01 3.491315e-01 5000.0 9.409324e-03 1.972959e-02
</event>
<event>
4 6 1.0 5000.0 7.905138e-03 7.739137e-02
21 -1 0 0 103 101  0.000000e+00  0.000000e+00  1.348979e+03  1.348979e+03 0.0 0.0 9.0
21 -1 0 0 101 102  0.000000e+00  0.000000e+00 -4.583862e+03  4.583862e+03 0.0 0.0 9.0
22  1 1 2   0   0 -1.068126e+03  2.183365e+03 -9.912345e+02  2.624981e+03 0.0 0.0 9.0
21  1 1 2 103 102  1.068126e+03 -2.183365e+03 -2.243648e+03  3.307860e+03 0.0 0.0 9.0
#pdf 21 21 2.075352e-01 7.052095e-01 5000.0 1.140313e-01 9.738746e-05
</event>
<event>
4 6 1.0 5000.0 7.905138e-03 7.739137e-02
21 -1 0 0 103 101  0.000000e+00  0.000000e+00  1.755988e+03  1.755988e+03 0.0 0.0 9.0
21 -1 0 0 101 102  0.000000e+00  0.000000e+00 -3.447184e+03  3.447184e+03 0.0 0.0 9.0
21  1 1 2 103 102  2.653674e+02 -2.252337e+03  1.629847e+02  2.273765e+03 0.0 0.0 9.0
22  1 1 2   0   0 -2.653674e+02  2.252337e+03 -1.854181e+03  2.929407e+03 0.0 0.0 9.0
#pdf 21 21 2.701520e-01 5.303360e-01 5000.0 5.194827e-02 1.841201e-03
</event>
<event>
4 6 1.0 5000.0 7.905138e-03 7.739137e-02
21 -1 0 0 101 102  0.000000e+00  0.000000e+00  2.343146e+03  2.343146e+03 0.0 0.0 9.0
21 -1 0 0 103 101  0.000000e+00  0.000000e+00 -2.193898e+03  2.193898e+03 0.0 0.0 9.0
22  1 1 2   0   0 -9.755391e+02  9.481766e+02 -1.740168e+03  2.208823e+03 0.0 0.0 9.0
21  1 1 2 103 102  9.755391e+02 -9.481766e+02  1.889416e+03  2.328220e+03 0.0 0.0 9.0
#pdf 21 21 3.604840e-01 3.375227e-01 5000.0 1.714661e-02 2.274375e-02
</event>
<event>
4 6 1.0 5000.0 7.905138e-03 7.739137e-02
21 -1 0 0 103 101  0.000000e+00  0.000000e+00  2.763309e+03  2.763309e+03 0.0 0.0 9.0
21 -1 0 0 101 102  0.000000e+00  0.000000e+00 -1.889377e+03  1.889377e+03 0.0 0.0 9.0
21  1 1 2 103 102  1.239761e+03 -1.676862e+03  1.387729e+03  2.504928e+03 0.0 0.0 9.0
22  1 1 2   0   0 -1.239761e+03  1.676862e+03 -5.137978e+02  2.147757e+03 0.0 0.0 9.0
#pdf 21 21 4.251244e-01 2.906734e-01 5000.0 7.614033e-03 4.040837e-02
</event>
<event>
4 6 1.0 5000.0 7.905138e-03 7.739137e-02
21 -1 0 0 101 102  0.000000e+00  0.000000e+00  2.534977e+03  2.534977e+03 0.0 0.0 9.0
21 -1 0 0 103 101  0.000000e+00  0.000000e+00 -2.410544e+03  2.410544e+03 0.0 0.0 9.0
22  1 1 2   0   0 -1.719038e+03  5.219065e+02  1.760752e+03  2.515497e+03 0.0 0.0 9.0
21  1 1 2 103 102  1.719038e+03 -5.219065e+02 -1.636320e+03  2.430024e+03 0.0 0.0 9.0
#pdf 21 21 3.899965e-01 3.708530e-01 5000.0 1.188403e-02 1.507579e-02
</event>
<event>
4 6 1.0 5000.0 7.905138e-03 7.739137e-02
21 -1 0 0 103 101  0.000000e+00  0.000000e+00  4.078080e+03  4.078080e+03 0.0 0.0 9.0
21 -1 0 0 101 102  0.000000e+00  0.000000e+00 -1.609006e+03  1.609006e+03 0.0 0.0 9.0
22  1 1 2   0   0 -2.418168e+03 -8.345329e+02  1.086960e+03  2.779472e+03 0.0 0.0 9.0
21  1 1 2 103 102  2.418168e+03  8.345329e+02  1.382114e+03  2.907614e+03 0.0 0.0 9.0
#pdf 21 21 6.273969e-01 2.475394e-01 5000.0 4.093220e-04 6.877395e-02
</event>
<event>
4 6 1.0 5000.0 7.905138e-03 7.739137e-02
21 -1 0 0 101 102  0.000000e+00  0.000000e+00  2.984454e+03  2.984454e+03 0.0 0.0 9.0
21 -1 0 0 103 101  0.000000e+00  0.000000e+00 -1.884933e+03  1.884933e+03 0.0 0.0 9.0
22  1 1 2   0   0  2.107761e+03 -9.534461e+02  1.264965e+01  2.313412e+03 0.0 0.0 9.0
21  1 1 2 103 102 -2.107761e+03  9.534461e+02  1.086872e+03  2.555975e+03 0.0 0.0 9.0
#pdf 21 21 4.591468e-01 2.899897e-01 5000.0 4.890807e-03 4.074435e-02
</event>
<event>
4 6 1.0 5000.0 7.905138e-03 7.739137e-02
21 -1 0 0 103 101  0.000000e+00  0.000000e+00  2.594829e+03  2.594829e+03 0.0 0.0 9.0
21 -1 0 0 101 102  0.000000e+00  0.000000e+00 -2.351039e+03  2.351039e+03 0.0 0.0 9.0
21  1 1 2 103 102  1.953892e+03  1.277692e+03  9.293226e+02  2.512734e+03 0.0 0.0 9.0
22  1 1 2   0   0 -1.953892e+03 -1.277692e+03 -6.855325e+02  2.433135e+03 0.0 0.0 9.0
#pdf 21 21 3.992045e-01 3.616984e-01 5000.0 1.058515e-02 1.689357e-02
</event>
<event>
4 6 1.0 5000.0 7.905138e-03 7.739137e-02
21 -1 0 0 103 101  0.000000e+00  0.000000e+00  3.505489e+03  3.505489e+03 0.0 0.0 9.0
21 -1 0 0 101 102  0.000000e+00  0.000000e+00 -1.439021e+03  1.439021e+03 0.0 0.0 9.0
21  1 1 2 103 102 -6.113834e+02  2.046351e+03  1.798333e+03  2.792015e+03 0.0 0.0 9.0
22  1 1 2   0   0  6.113834e+02 -2.046351e+03  2.681343e+02  2.152496e+03 0.0 0.0 9.0
#pdf 21 21 5.393060e-01 2.213879e-01 5000.0 1.615940e-03 9.556218e-02
</event>
<event>
4 6 1.0 5000.0 7.905138e-03 7.739137e-02
21 -1 0 0 101 102  0.000000e+00  0.000000e+00  2.522351e+03  2.522351e+03 0.0 0.0 9.0
21 -1 0 0 103 101  0.000000e+00  0.000000e+00 -2.459054e+03  2.459054e+03 0.0 0.0 9.0
22  1 1 2   0   0  1.587396e+03 -1.437780e+02  1.945465e+03  2.515021e+03 0.0 0.0 9.0
21  1 1 2 103 102 -1.587396e+03  1.437780e+02 -1.882167e+03  2.466384e+03 0.0 0.0 9.0
#pdf 21 21 3.880540e-01 3.783160e-01 5000.0 1.217865e-02 1.376084e-02
</event>
<event>
4 6 1.0 5000.0 7.905138e-03 7.739137e-02
21 -1 0 0 103 101  0.000000e+00  0.000000e+00  1.977050e+03  1.977050e+03 0.0 0.0 9.0
21 -1 0 0 101 102  0.000000e+00  0.000000e+00 -3.161140e+03  3.161140e+03 0.0 0.0 9.0
21  1 1 2 103 102  8.419248e+02  2.264522e+03 -1.252339e+03  2.721259e+03 0.0 0.0 9.0
22  1 1 2   0   0 -8.419248e+02 -2.264522e+03  6.824842e+01  2.416931e+03 0.0 0.0 9.0
#pdf 21 21 3.041615e-01 4.863293e-01 5000.0 3.425815e-02 3.397624e-03
</event>
<event>
4 6 1.0 5000.0 7.905138e-03 7.739137e-02
21 -1 0 0 101 102  0.000000e+00  0.000000e+00  4.256036e+03  4.256036e+03 0.0 0.0 9.0
21 -1 0 0 103 101  0.000000e+00  0.000000e+00 -1.478895e+03  1.478895e+03 0.0 0.0 9.0
22  1 1 2   0   0  1.778488e+03 -1.453714e+03  2.541718e+03  3.425877e+03 0.0 0.0 9.0
21  1 1 2 103 102 -1.778488e+03  1.453714e+03  2.354229e+02  2.309053e+03 0.0 0.0 9.0
#pdf 21 21 6.547747e-01 2.275223e-01 5000.0 2.547183e-04 8.835949e-02
</event>
<event>
4 6 1.0 5000.0 7.905138e-03 7.739137e-02
21 -1 0 0 103 101  0.000000e+00  0.000000e+00  2.982210e+03  2.982210e+03 0.0 0.0 9.0
21 -1 0 0 101 102  0.000000e+00  0.000000e+00 -1.719420e+03  1.719420e+03 0.0 0.0 9.0
22  1 1 2   0   0 -1.550091e+03  1.554446e+03  5.469635e+01  2.195922e+03 0.0 0.0 9.0
21  1 1 2 103 102  1.550091e+03 -1.554446e+03  1.208093e+03  2.505708e+03 0.0 0.0 9.0
#pdf 21 21 4.588015e-01 2.645262e-01 5000.0 4.913375e-03 5.568068e-02
</event>
<event>
4 6 1.0 5000.0 7.905138e-03 7.739137e-02
21 -1 0 0 103 101  0.000000e+00  0.000000e+00  3.202314e+03  3.202314e+03 0.0 0.0 9.0
21 -1 0 0 101 102  0.000000e+00  0.000000e+00 -1.372891e+03  1.372891e+03 0.0 0.0 9.0
21  1 1 2 103 102 -1.738578e+03 -6.513618e+02 -1.484003e+02  1.862511e+03 0.0 0.0 9.0
22  1 1 2   0   0  1.738578e+03  6.513618e+02  1.977823e+03  2.712694e+03 0.0 0.0 9.0
#pdf 21 21 4.926636e-01 2.112140e-01 5000.0 3.117331e-03 1.088293e-01
</event>
<event>
4 6 1.0 5000.0 7.905138e-03 7.739137e-02
21 -1 0 0 103 101  0.000000e+00  0.000000e+00  2.884115e+03  2.884115e+03 0.0 0.0 9.0
21 -1 0 0 101 102  0.000000e+00  0.000000e+00 -2.052511e+03  2.052511e+03 0.0 0.0 9.0
22  1 1 2   0   0 -1.706319e+03  6.698010e+02  2.038847e+03  2.741724e+03 0.0 0.0 9.0
21  1 1 2 103 102  1.706319e+03 -6.698010e+02 -1.207243e+03  2.194902e+03 0.0 0.0 9.0
#pdf 21 21 4.437100e-01 3.157709e-01 5000.0 5.990724e-03 2.969703e-02
</event>
<event>
4 6 1.0 5000.0 7.905138e-03 7.739137e-02
21 -1 0 0 103 101  0.000000e+00  0.000000e+00  2.758716e+03  2.758716e+03 0.0 0.0 9.0
21 -1 0 0 101 102  0.000000e+00  0.000000e+00 -2.252394e+03  2.252394e+03 0.0 0.0 9.0
22  1 1 2   0   0  2.202982e+03  3.218194e+02 -8.737740e+02  2.391690e+03 0.0 0.0 9.0
21  1 1 2 103 102 -2.202982e+03 -3.218194e+02  1.380096e+03  2.619421e+03 0.0 0.0 9.0
#pdf 21 21 4.244179e-01 3.465221e-01 5000.0 7.683486e-03 2.037139e-02
</event>
<event>
4 6 1.0 5000.0 7.905138e-03 7.739137e-02
21 -1 0 0 101 102  0.000000e+00  0.000000e+00  2.770336e+03  2.770336e+03 0.0 0.0 9.0
21 -1 0 0 103 101  0.000000e+00  0.000000e+00 -2.185507e+03  2.185507e+03 0.0 0.0 9.0
22  1 1 2   0   0 -1.825042e+03 -1.610307e+03  6.565170e+02  2.520889e+03 0.0 0.0 9.0
21  1 1 2 103 102  1.825042e+03  1.610307e+03 -7.168815e+01  2.434955e+03 0.0 0.0 9.0
#pdf 21 21 4.262056e-01 3.362319e-01 5000.0 7.508754e-03 2.310806e-02
</event>
<event>
4 6 1.0 5000.0 7.905138e-03 7.739137e-02
21 -1 0 0 103 101  0.000000e+00  0.000000e+00  2.860166e+03  2.860166e+03 0.0 0.0 9.0
21 -1 0 0 101 102  0.000000e+00  0.000000e+00 -2.284688e+03  2.284688e+03 0.0 0.0 9.0
21  1 1 2 103 102 -1.988062e+03  1.513937e+03  8.298383e+02  2.633064e+03 0.0 0.0 9.0
22  1 1 2   0   0  1.988062e+03 -1.513937e+03 -2.543600e+02  2.511791e+03 0.0 0.0 9.0
#pdf 21 21 4.400256e-01 3.514905e-01 5000.0 6.288459e-03 1.916372e-02
</event>
<event>
4 6 1.0 5000.0 7.905138e-03 7.739137e-02
21 -1 0 0 101 102  0.000000e+00  0.000000e+00  3.128606e+03  3.128606e+03 0.0 0.0 9.0
21 -1 0 0 103 101  0.000000e+00  0.000000e+00 -1.929075e+03  1.929075e+03 0.0 0.0 9.0
22  1 1 2   0   0 -6.077975e+02 -2.127870e+03  1.697899e+03  2.789285e+03 0.0 0.0 9.0
21  1 1 2 103 102  6.077975e+02  2.127870e+03 -4.983677e+02  2.268396e+03 0.0 0.0 9.0
#pdf 21 21 4.813240e-01 2.967808e-01 5000.0 3.636450e-03 3.749882e-02
</event>
<event>
4 6 1.0 5000.0 7.905138e-03 7.739137e-02
21 -1 0 0 103 101  0.000000e+00  0.000000e+00  1.936630e+03  1.936630e+03 0.0 0.0 9.0
21 -1 0 0 101 102  0.000000e+00  0.000000e+00 -2.348076e+03  2.348076e+03 0.0 0.0 9.0
22  1 1 2   0   0 -1.214412e+02 -1.412848e+03  1.394300e+03  1.988708e+03 0.0 0.0 9.0
21  1 1 2 103 102  1.214412e+02  1.412848e+03 -1.805746e+03  2.295998e+03 0.0 0.0 9.0
#pdf 21 21 2.979431e-01 3.612425e-01 5000.0 3.695883e-02 1.698814e-02
</event>
<event>
4 6 1.0 5000.0 7.905138e-03 7.739137e-02
21 -1 0 0 103 101  0.000000e+00  0.000000e+00  2.900826e+03  2.900826e+03 0.0 0.0 9.0
21 -1 0 0 101 102  0.000000e+00  0.000000e+00 -2.231627e+03  2.231627e+03 0.0 0.0 9.0
22  1 1 2   0   0 -9.009857e+02  1.425906e+03 -1.586684e+03  2.315718e+03 0.0 0.0 9.0
21  1 1 2 103 102  9.009857e+02 -1.425906e+03  2.255883e+03  2.816734e+03 0.0 0.0 9.0
#pdf 21 21 4.462809e-01 3.433272e-01 5000.0 5.787963e-03 2.118309e-02
</event>
<event>
4 6 1.0 5000.0 7.905138e-03 7.739137e-02
21 -1 0 0 101 102  0.000000e+00  0.000000e+00  3.003575e+03  3.003575e+03 0.0 0.0 9.0
21 -1 0 0 103 101  0.000000e+00  0.000000e+00 -2.141008e+03  2.141008e+03 0.0 0.0 9.0
21  1 1 2 103 102  4.259944e+02  1.279865e+03 -1.746910e+03  2.207084e+03 0.0 0.0 9.0
22  1 1 2   0   0 -4.259944e+02 -1.279865e+03  2.609478e+03  2.937499e+03 0.0 0.0 9.0
#pdf 21 21 4.620885e-01 3.293858e-01 5000.0 4.703071e-03 2.513454e-02
</event>
<event>
4 6 1.0 5000.0 7.905138e-03 7.739137e-02
21 -1 0 0 103 101  0.000000e+00  0.000000e+00  2.678853e+03  2.678853e+03 0.0 0.0 9.0
21 -1 0 0 101 102  0.000000e+00  0.000000e+00 -2.094870e+03  2.094870e+03 0.0 0.0 9.0
21  1 1 2 103 102 -8.850031e+02 -3.865869e+02 -1.887518e+03  2.120236e+03 0.0 0.0 9.0
22  1 1 2   0   0  8.850031e+02  3.865869e+02  2.471500e+03  2.653487e+03 0.0 0.0 9.0
#pdf 21 21 4.121313e-01 3.222878e-01 5000.0 8.986670e-03 2.741416e-02
</event>
<event>
4 6 1.0 5000.0 7.905138e-03 7.739137e-02
21 -1 0 0 101 102  0.000000e+00  0.000000e+00  2.379399e+03  2.379399e+03 0.0 0.0 9.0
21 -1 0 0 103 101  0.000000e+00  0.000000e+00 -2.404161e+03  2.404161e+03 0.0 0.0 9.0
21  1 1 2 103 102  2.333123e+03 -2.969764e+02  4.221393e+02  2.389531e+03 0.0 0.0 9.0
22  1 1 2   0   0 -2.333123e+03  2.969764e+02 -4.469005e+02  2.394029e+03 0.0 0.0 9.0
#pdf 21 21 3.660615e-01 3.698709e-01 5000.0 1.600780e-02 1.526019e-02
</event>
<event>
4 6 1.0 5000.0 7.905138e-03 7.739137e-02
21 -1 0 0 101 102  0.000000e+00  0.000000e+00  3.497519e+03  3.497519e+03 0.0 0.0 9.0
21 -1 0 0 103 101  0.000000e+00  0.000000e+00 -1.752713e+03  1.752713e+03 0.0 0.0 9.0
21  1 1 2 103 102 -5.156058e+02  2.002251e+03  2.316576e+03  3.105057e+03 0.0 0.0 9.0
22  1 1 2   0   0  5.156058e+02 -2.002251e+03 -5.717696e+02  2.145176e+03 0.0 0.0 9.0
#pdf 21 21 5.380799e-01 2.696482e-01 5000.0 1.644979e-03 5.227126e-02
</event>
<event>
4 6 1.0 5000.0 7.905138e-03 7.739137e-02
21 -1 0 0 101 102  0.000000e+00  0.000000e+00  3.632696e+03  3.632696e+03 0.0 0.0 9.0
21 -1 0 0 103 101  0.000000e+00  0.000000e+00 -1.832222e+03  1.832222e+03 0.0 0.0 9.0
22  1 1 2   0   0  9.786211e+02  2.041679e+03 -4.097310e+02  2.300876e+03 0.0 0.0 9.0
21  1 1 2 103 102 -9.786211e+02 -2.041679e+03  2.210206e+03  3.164042e+03 0.0 0.0 9.0
#pdf 21 21 5.588764e-01 2.818803e-01 5000.0 1.213414e-03 4.496977e-02
</event>
<event>
4 6 1.0 5000.0 7.905138e-03 7.739137e-02
21 -1 0 0 103 101  0.000000e+00  0.000000e+00  1.808280e+03  1.808280e+03 0.0 0.0 9.0
21 -1 0 0 101 102  0.000000e+00  0.000000e+00 -2.954497e+03  2.954497e+03 0.0 0.0 9.0
21  1 1 2 103 102  2.234518e+03  5.544406e+02 -3.617467e+02  2.330522e+03 0.0 0.0 9.0
22  1 1 2   0   0 -2.234518e+03 -5.544406e+02 -7.844702e+02  2.432256e+03 0.0 0.0 9.0
#pdf 21 21 2.781970e-01 4.545381e-01 5000.0 4.705780e-02 5.199832e-03
</event>
<event>
4 6 1.0 5000.0 7.905138e-03 7.739137e-02
21 -1 0 0 103 101  0.000000e+00  0.000000e+00  2.765501e+03  2.765501e+03 0.0 0.0 9.0
21 -1 0 0 101 102  0.000000e+00  0.000000e+00 -2.466802e+03  2.466802e+03 0.0 0.0 9.0
22  1 1 2   0   0 -2.345689e+03  8.081960e+02 -6.683832e+02  2.569470e+03 0.0 0.0 9.0
21  1 1 2 103 102  2.345689e+03 -8.081960e+02  9.670822e+02  2.662834e+03 0.0 0.0 9.0
#pdf 21 21 4.254617e-01 3.795081e-01 5000.0 7.581057e-03 1.355861e-02
</event>
<event>
4 6 1.0 5000.0 7.905138e-03 7.739137e-02
21 -1 0 0 103 101  0.000000e+00  0.000000e+00  3.922837e+03  3.922837e+03 0.0 0.0 9.0
21 -1 0 0 101 102  0.000000e+00  0.000000e+00 -1.854490e+03  1.854490e+03 0.0 0.0 9.0
21  1 1 2 103 102 -1.958289e+03 -1.028142e+03 -6.190687e+02  2.296784e+03 0.0 0.0 9.0
22  1 1 2   0   0  1.958289e+03  1.028142e+03  2.687416e+03  3.480543e+03 0.0 0.0 9.0
#pdf 21 21 6.035134e-01 2.853061e-01 5000.0 6.068501e-04 4.312339e-02
</event>
<event>
4 6 1.0 5000.0 7.905138e-03 7.739137e-02
21 -1 0 0 101 102  0.000000e+00  0.000000e+00  3.058723e+03  3.058723e+03 0.0 0.0 9.0
21 -1 0 0 103 101  0.000000e+00  0.000000e+00 -1.447231e+03  1.447231e+03 0.0 0.0 9.0
22  1 1 2   0   0  1.942745e+03  5.946078e+02  2.203448e+02  2.043616e+03 0.0 0.0 9.0
21  1 1 2 103 102 -1.942745e+03 -5.946078e+02  1.391147e+03  2.462337e+03 0.0 0.0 9.0
#pdf 21 21 4.705727e-01 2.226509e-01 5000.0 4.202573e-03 9.402895e-02
</event>
<event>
4 6 1.0 5000.0 7.905138e-03 7.739137e-02
21 -1 0 0 101 102  0.000000e+00  0.000000e+00  3.348984e+03  3.348984e+03 0.0 0.0 9.0
21 -1 0 0 103 101  0.000000e+00  0.000000e+00 -1.471721e+03  1.471721e+03 0.0 0.0 9.0
22  1 1 2   0   0  1.264722e+03  6.919740e+02  2.771646e+03  3.124159e+03 0.0 0.0 9.0
21  1 1 2 103 102 -1.264722e+03 -6.919740e+02 -8.943823e+02  1.696546e+03 0.0 0.0 9.0
#pdf 21 21 5.152284e-01 2.264186e-01 5000.0 2.280458e-03 8.960952e-02
</event>
<event>
4 6 1.0 5000.0 7.905138e-03 7.739137e-02
21 -1 0 0 101 102  0.000000e+00  0.000000e+00  2.311450e+03  2.311450e+03 0.0 0.0 9.0
21 -1 0 0 103 101  0.000000e+00  0.000000e+00 -2.195909e+03  2.195909e+03 0.0 0.0 9.0
21  1 1 2 103 102  5.154456e+02  2.040331e+03  8.624602e+02  2.274307e+03 0.0 0.0 9.0
22  1 1 2   0   0 -5.154456e+02 -2.040331e+03 -7.469199e+02  2.233052e+03 0.0 0.0 9.0
#pdf 21 21 3.556077e-01 3.378322e-01 5000.0 1.820628e-02 2.265741e-02
</event>
<event>
4 6 1.0 5000.0 7.905138e-03 7.739137e-02
21 -1 0 0 103 101  0.000000e+00  0.000000e+00  2.945489e+03  2.945489e+03 0.0 0.0 9.0
21 -1 0 0 101 102  0.000000e+00  0.000000e+00 -2.111931e+03  2.111931e+03 0.0 0.0 9.0
21  1 1 2 103 102 -2.121467e+02  2.455422e+03  2.863111e+01  2.464736e+03 0.0 0.0 9.0
22  1 1 2   0   0  2.121467e+02 -2.455422e+03  8.049274e+02  2.592684e+03 0.0 0.0 9.0
#pdf 21 21 4.531522e-01 3.249124e-01 5000.0 5.295636e-03 2.654806e-02
</event>
<event>
4 6 1.0 5000.0 7.905138e-03 7.739137e-02
21 -1 0 0 103 101  0.000000e+00  0.000000e+00  2.620485e+03  2.620485e+03 0.0 0.0 9.0
21 -1 0 0 101 102  0.000000e+00  0.000000e+00 -2.914569e+03  2.914569e+03 0.0 0.0 9.0
21  1 1 2 103 102 -3.904363e+02 -1.960921e+03 -2.057601e+03  2.869037e+03 0.0 0.0 9.0
22  1 1 2   0   0  3.904363e+02  1.960921e+03  1.763517e+03  2.666017e+03 0.0 0.0 9.0
#pdf 21 21 4.031516e-01 4.483953e-01 5000.0 1.007193e-02 5.631756e-03
</event>
<event>
4 6 1.0 5000.0 7.905138e-03 7.739137e-02
21 -1 0 0 101 102  0.000000e+00  0.000000e+00  2.270229e+03  2.270229e+03 0.0 0.0 9.0
21 -1 0 0 103 101  0.000000e+00  0.000000e+00 -2.744273e+03  2.744273e+03 0.0 0.0 9.0
21  1 1 2 103 102  1.328242e+03  1.486159e+03 -1.746190e+03  2.649920e+03 0.0 0.0 9.0
22  1 1 2   0   0 -1.328242e+03 -1.486159e+03  1.272146e+03  2.364583e+03 0.0 0.0 9.0
#pdf 21 21 3.492661e-01 4.221959e-01 5000.0 1.969695e-02 7.905433e-03
</event>
<event>
4 6 1.0 5000.0 7.905138e-03 7.739137e-02
21 -1 0 0 103 101  0.000000e+00  0.000000e+00  4.639008e+03  4.639008e+03 0.0 0.0 9.0
21 -1 0 0 101 102  0.000000e+00  0.000000e+00 -1.303425e+03  1.303425e+03 0.0 0.0 9.0
21  1 1 2 103 102 -7.775440e+02 -1.785790e+03 -1.458737e+02  1.953177e+03 0.0 0.0 9.0
22  1 1 2   0   0  7.775440e+02  1.785790e+03  3.481457e+03  3.989256e+03 0.0 0.0 9.0
#pdf 21 21 7.136936e-01 2.005269e-01 5000.0 8.188362e-05 1.249545e-01
</event>
<event>
4 6 1.0 5000.0 7.905138e-03 7.739137e-02
21 -1 0 0 103 101  0.000000e+00  0.000000e+00  3.443302e+03  3.443302e+03 0.0 0.0 9.0
21 -1 0 0 101 102  0.000000e+00  0.000000e+00 -1.899322e+03  1.899322e+03 0.0 0.0 9.0
22  1 1 2   0   0  1.762144e+03  3.771379e+02  2.667404e+03  3.219073e+03 0.0 0.0 9.0
21  1 1 2 103 102 -1.762144e+03 -3.771379e+02 -1.123424e+03  2.123551e+03 0.0 0.0 9.0
#pdf 21 21 5.297387e-01 2.922034e-01 5000.0 1.856997e-03 3.966521e-02
</event>
<event>
4 6 1.0 5000.0 7.905138e-03 7.739137e-02
21 -1 0 0 101 102  0.000000e+00  0.000000e+00  1.599094e+03  1.599094e+03 0.0 0.0 9.0
21 -1 0 0 103 101  0.000000e+00  0.000000e+00 -3.800532e+03  3.800532e+03 0.0 0.0 9.0
22  1 1 2   0   0 -1.137972e+03  1.404251e+03 -2.936694e+03  3.448344e+03 0.0 0.0 9.0
21  1 1 2 103 102  1.137972e+03 -1.404251e+03  7.352561e+02  1.951282e+03 0.0 0.0 9.0
#pdf 21 21 2.460144e-01 5.846972e-01 5000.0 7.005304e-02 8.172084e-04
</event>
<event>
4 6 1.0 5000.0 7.905138e-03 7.739137e-02
21 -1 0 0 101 102  0.000000e+00  0.000000e+00  1.773829e+03  1.773829e+03 0.0 0.0 9.0
21 -1 0 0 103 101  0.000000e+00  0.000000e+00 -3.418994e+03  3.418994e+03 0.0 0.0 9.0
21  1 1 2 103 102  1.701186e+03 -3.537593e+01 -2.699558e+03  3.191065e+03 0.0 0.0 9.0
22  1 1 2   0   0 -1.701186e+03  3.537593e+01  1.054393e+03  2.001757e+03 0.0 0.0 9.0
#pdf 21 21 2.728968e-01 5.259990e-01 5000.0 5.022481e-02 1.958375e-03
</event>
<event>
4 6 1.0 5000.0 7.905138e-03 7.739137e-02
21 -1 0 0 103 101  0.000000e+00  0.000000e+00  1.961476e+03  1.961476e+03 0.0 0.0 9.0
21 -1 0 0 101 102  0.000000e+00  0.000000e+00 -2.781694e+03  2.781694e+03 0.0 0.0 9.0
21  1 1 2 103 102  2.297397e+03 -4.032355e+02 -5.369115e+02  2.393513e+03 0.0 0.0 9.0
22  1 1 2   0   0 -2.297397e+03  4.032355e+02 -2.833062e+02  2.349658e+03 0.0 0.0 9.0
#pdf 21 21 3.017656e-01 4.279530e-01 5000.0 3.525697e-02 7.341395e-03
</event>
<event>
4 6 1.0 5000.0 7.905138e-03 7.739137e-02
21 -1 0 0 101 102  0.000000e+00  0.000000e+00  2.399908e+03  2.399908e+03 0.0 0.0 9.0
21 -1 0 0 103 101  0.000000e+00  0.000000e+00 -2.624849e+03  2.624849e+03 0.0 0.0 9.0
22  1 1 2   0   0 -1.188501e+03 -1.431094e+03 -1.799044e+03  2.587880e+03 0.0 0.0 9.0
21  1 1 2 103 102  1.188501e+03  1.431094e+03  1.574103e+03  2.436876e+03 0.0 0.0 9.0
#pdf 21 21 3.692165e-01 4.038229e-01 5000.0 1.538525e-02 9.986944e-03
</event>
<event>
4 6 1.0 5000.0 7.905138e-03 7.739137e-02
21 -1 0 0 101 102  0.000000e+00  0.000000e+00  3.240105e+03  3.240105e+03 0.0 0.0 9.0
21 -1 0 0 103 101  0.000000e+00  0.000000e+00 -2.041052e+03  2.041052e+03 0.0 0.0 9.0
22  1 1 2   0   0 -1.579111e+03 -1.880099e+03  1.384796e+03  2.818869e+03 0.0 0.0 9.0
21  1 1 2 103 102  1.579111e+03  1.880099e+03 -1.857437e+02  2.462288e+03 0.0 0.0 9.0
#pdf 21 21 4.984777e-01 3.140081e-01 5000.0 2.878392e-03 3.035179e-02
</event>
<event>
4 6 1.0 5000.0 7.905138e-03 7.739137e-02
21 -1 0 0 101 102  0.000000e+00  0.000000e+00  3.707505e+03  3.707505e+03 0.0 0.0 9.0
21 -1 0 0 103 101  0.000000e+00  0.000000e+00 -1.320859e+03  1.320859e+03 0.0 0.0 9.0
21  1 1 2 103 102  5.678435e+02 -2.133518e+03  1.021975e+03  2.432854e+03 0.0 0.0 9.0
22  1 1 2   0   0 -5.678435e+02  2.133518e+03  1.364671e+03  2.595510e+03 0.0 0.0 9.0
#pdf 21 21 5.703853e-01 2.032092e-01 5000.0 1.018813e-03 1.206311e-01
</event>
<event>
4 6 1.0 5000.0 7.905138e-03 7.739137e-02
21 -1 0 0 103 101  0.000000e+00  0.000000e+00  1.928782e+03  1.928782e+03 0.0 0.0 9.0
21 -1 0 0 101 102  0.000000e+00  0.000000e+00 -3.183613e+03  3.183613e+03 0.0 0.0 9.0
21  1 1 2 103 102  1.699252e+03  1.109581e+03 -2.094209e+03  2.916220e+03 0.0 0.0 9.0
22  1 1 2   0   0 -1.699252e+03 -1.109581e+03  8.393776e+02  2.196175e+03 0.0 0.0 9.0
#pdf 21 21 2.967356e-01 4.897866e-01 5000.0 3.751985e-02 3.241831e-03
</event>
<event>
4 6 1.0 5000.0 7.905138e-03 7.739137e-02
21 -1 0 0 101 102  0.000000e+00  0.000000e+00  3.675245e+03  3.675245e+03 0.0 0.0 9.0
21 -1 0 0 103 101  0.000000e+00  0.000000e+00 -1.905192e+03  1.905192e+03 0.0 0.0 9.0
21  1 1 2 103 102  2.291585e+02 -2.626236e+03  6.436105e+02  2.713644e+03 0.0 0.0 9.0
22  1 1 2   0   0 -2.291585e+02  2.626236e+03  1.126443e+03  2.866793e+03 0.0 0.0 9.0
#pdf 21 21 5.654223e-01 2.931064e-01 5000.0 1.099441e-03 3.923166e-02
</event>
<event>
4 6 1.0 5000.0 7.905138e-03 7.739137e-02
21 -1 0 0 103 101  0.000000e+00  0.000000e+00  3.583198e+03  3.583198e+03 0.0 0.0 9.0
21 -1 0 0 101 102  0.000000e+00  0.000000e+00 -2.070330e+03  2.070330e+03 0.0 0.0 9.0
21  1 1 2 103 102  1.515873e+03  1.177805e+03  2.761742e+03  3.363378e+03 0.0 0.0 9.0
22  1 1 2   0   0 -1.515873e+03 -1.177805e+03 -1.248874e+03  2.290149e+03 0.0 0.0 9.0
#pdf 21 21 5.512612e-01 3.185123e-01 5000.0 1.356005e-03 2.871179e-02
</event>
<event>
4 6 1.0 5000.0 7.905138e-03 7.739137e-02
21 -1 0 0 101 102  0.000000e+00  0.000000e+00  3.504140e+03  3.504140e+03 0.0 0.0 9.0
21 -1 0 0 103 101  0.000000e+00  0.000000e+00 -1.881011e+03  1.881011e+03 0.0 0.0 9.0
21  1 1 2 103 102  1.166652e+03 -4.602009e+02 -1.537890e+03  1.984431e+03 0.0 0.0 9.0
22  1 1 2   0   0 -1.166652e+03  4.602009e+02  3.161019e+03  3.400721e+03 0.0 0.0 9.0
#pdf 21 21 5.390985e-01 2.893864e-01 5000.0 1.620808e-03 4.104293e-02
</event>
<event>
4 6 1.0 5000.0 7.905138e-03 7.739137e-02
21 -1 0 0 103 101  0.000000e+00  0.000000e+00  3.066352e+03  3.066352e+03 0.0 0.0 9.0
21 -1 0 0 101 102  0.000000e+00  0.000000e+00 -1.780820e+03  1.780820e+03 0.0 0.0 9.0
21  1 1 2 103 102  2.524432e+02 -4.761432e+02 -1.715486e+03  1.798147e+03 0.0 0.0 9.0
22  1 1 2   0   0 -2.524432e+02  4.761432e+02  3.001018e+03  3.049024e+03 0.0 0.0 9.0
#pdf 21 21 4.717464e-01 2.739723e-01 5000.0 4.137224e-03 4.956558e-02
</event>
<event>
4 6 1.0 5000.0 7.905138e-03 7.739137e-02
21 -1 0 0 101 102  0.000000e+00  0.000000e+00  3.708010e+03  3.708010e+03 0.0 0.0 9.0
21 -1 0 0 103 101  0.000000e+00  0.000000e+00 -1.721539e+03  1.721539e+03 0.0 0.0 9.0
22  1 1 2   0   0  1.621430e+03  1.898137e+03  5.749783e+02  2.561750e+03 0.0 0.0 9.0
21  1 1 2 103 102 -1.621430e+03 -1.898137e+03  1.411493e+03  2.867799e+03 0.0 0.0 9.0
#pdf 21 21 5.704631e-01 2.648522e-01 5000.0 1.017595e-03 5.545660e-02
</event>
<event>
4 6 1.0 5000.0 7.905138e-03 7.739137e-02
21 -1 0 0 103 101  0.000000e+00  0.000000e+00  3.644066e+03  3.644066e+03 0.0 0.0 9.0
21 -1 0 0 101 102  0.000000e+00  0.000000e+00 -1.488156e+03  1.488156e+03 0.0 0.0 9.0
22  1 1 2   0   0  1.866479e+03  5.989585e+02  2.463267e+03  3.148044e+03 0.0 0.0 9.0
21  1 1 2 103 102 -1.866479e+03 -5.989585e+02 -3.073575e+02  1.984178e+03 0.0 0.0 9.0
#pdf 21 21 5.606255e-01 2.289471e-01 5000.0 1.182204e-03 8.678136e-02
</event>
<event>
4 6 1.0 5000.0 7.905138e-03 7.739137e-02
21 -1 0 0 103 101  0.000000e+00  0.000000e+00  2.109255e+03  2.109255e+03 0.0 0.0 9.0
21 -1 0 0 101 102  0.000000e+00  0.000000e+00 -2.778651e+03  2.778651e+03 0.0 0.0 9.0
22  1 1 2   0   0 -1.807435e+03  4.661285e+02  1.221649e+03  2.230812e+03 0.0 0.0 9.0
21  1 1 2 103 102  1.807435e+03 -4.661285e+02 -1.891045e+03  2.657094e+03 0.0 0.0 9.0
#pdf 21 21 3.245007e-01 4.274847e-01 5000.0 2.668206e-02 7.385811e-03
</event>
<event>
4 6 1.0 5000.0 7.905138e-03 7.739137e-02
21 -1 0 0 103 101  0.000000e+00  0.000000e+00  2.094326e+03  2.094326e+03 0.0 0.0 9.0
21 -1 0 0 101 102  0.000000e+00  0.000000e+00 -2.106808e+03  2.106808e+03 0.0 0.0 9.0
22  1 1 2   0   0 -3.498170e+02  5.057465e+02  2.002297e+03  2.094599e+03 0.0 0.0 9.0
21  1 1 2 103 102  3.498170e+02 -5.057465e+02 -2.014779e+03  2.106534e+03 0.0 0.0 9.0
#pdf 21 21 3.222040e-01 3.241242e-01 5000.0 2.744228e-02 2.680517e-02
</event>
<event>
4 6 1.0 5000.0 7.905138e-03 7.739137e-02
21 -1 0 0 101 102  0.000000e+00  0.000000e+00  1.678045e+03  1.678045e+03 0.0 0.0 9.0
21 -1 0 0 103 101  0.000000e+00  0.000000e+00 -3.786865e+03  3.786865e+03 0.0 0.0 9.0
22  1 1 2   0   0 -1.517347e+03 -5.267664e+02  1.051564e+03  1.919794e+03 0.0 0.0 9.0
21  1 1 2 103 102  1.517347e+03  5.267664e+02 -3.160383e+03  3.545116e+03 0.0 0.0 9.0
#pdf 21 21 2.581608e-01 5.825946e-01 5000.0 6.028167e-02 8.442824e-04
</event>
<event>
4 6 1.0 5000.0 7.905138e-03 7.739137e-02
21 -1 0 0 103 101  0.000000e+00  0.000000e+00  2.860543e+03  2.860543e+03 0.0 0.0 9.0
21 -1 0 0 101 102  0.000000e+00  0.000000e+00 -2.193967e+03  2.193967e+03 0.0 0.0 9.0
21  1 1 2 103 102 -2.228008e+03  2.907402e+02 -7.843485e+02  2.379864e+03 0.0 0.0 9.0
22  1 1 2   0   0  2.228008e+03 -2.907402e+02  1.450925e+03  2.674646e+03 0.0 0.0 9.0
#pdf 21 21 4.400836e-01 3.375334e-01 5000.0 6.283719e-03 2.274078e-02
</event>
<event>
4 6 1.0 5000.0 7.905138e-03 7.739137e-02
21 -1 0 0 101 102  0.000000e+00  0.000000e+00  2.802577e+03  2.802577e+03 0.0 0.0 9.0
21 -1 0 0 103 101  0.000000e+00  0.000000e+00 -1.730034e+03  1.730034e+03 0.0 0.0 9.0
21  1 1 2 103 102  6.542505e+02  1.504410e+03 -9.754217e+02  1.908596e+03 0.0 0.0 9.0
22  1 1 2   0   0 -6.542505e+02 -1.504410e+03  2.047965e+03  2.624015e+03 0.0 0.0 9.0
#pdf 21 21 4.311657e-01 2.661591e-01 5000.0 7.045204e-03 5.456810e-02
</event>
<event>
4 6 1.0 5000.0 7.905138e-03 7.739137e-02
21 -1 0 0 103 101  0.000000e+00  0.000000e+00  2.637867e+03  2.637867e+03 0.0 0.0 9.0
21 -1 0 0 101 102  0.000000e+00  0.000000e+00 -2.326187e+03  2.326187e+03 0.0 0.0 9.0
21  1 1 2 103 102 -6.200173e+02  2.397862e+03  1.109427e+02  2.479208e+03 0.0 0.0 9.0
22  1 1 2   0   0  6.200173e+02 -2.397862e+03  2.007368e+02  2.484846e+03 0.0 0.0 9.0
#pdf 21 21 4.058256e-01 3.578749e-01 5000.0 9.737166e-03 1.770376e-02
</event>
<event>
4 6 1.0 5000.0 7.905138e-03 7.739137e-02
21 -1 0 0 103 101  0.000000e+00  0.000000e+00  2.108497e+03  2.108497e+03 0.0 0.0 9.0
21 -1 0 0 101 102  0.000000e+00  0.000000e+00 -3.010096e+03  3.010096e+03 0.0 0.0 9.0
22  1 1 2   0   0  4.779926e+02  1.036402e+03  1.830797e+03  2.157411e+03 0.0 0.0 9.0
21  1 1 2 103 102 -4.779926e+02 -1.036402e+03 -2.732396e+03  2.961181e+03 0.0 0.0 9.0
#pdf 21 21 3.243841e-01 4.630917e-01 5000.0 2.672012e-02 4.641040e-03
</event>
<event>
4 6 1.0 5000.0 7.905138e-03 7.739137e-02
21 -1 0 0 101 102  0.000000e+00  0.000000e+00  1.806471e+03  1.806471e+03 0.0 0.0 9.0
21 -1 0 0 103 101  0.000000e+00  0.000000e+00 -3.123994e+03  3.123994e+03 0.0 0.0 9.0
21  1 1 2 103 102 -1.342526e+03  1.914802e+03 -2.251932e+02  2.349374e+03 0.0 0.0 9.0
22  1 1 2   0   0  1.342526e+03 -1.914802e+03 -1.092330e+03  2.581091e+03 0.0 0.0 9.0
#pdf 21 21 2.779185e-01 4.806144e-01 5000.0 4.721925e-02 3.671645e-03
</event>
<event>
4 6 1.0 5000.0 7.905138e-03 7.739137e-02
21 -1 0 0 101 102  0.000000e+00  0.000000e+00  2.079912e+03  2.079912e+03 0.0 0.0 9.0
21 -1 0 0 103 101  0.000000e+00  0.000000e+00 -2.854101e+03  2.854101e+03 0.0 0.0 9.0
22  1 1 2   0   0  1.902395e+03 -8.993547e+01  1.151532e+03  2.225583e+03 0.0 0.0 9.0
21  1 1 2 103 102 -1.902395e+03  8.993547e+01 -1.925721e+03  2.708431e+03 0.0 0.0 9.0
#pdf 21 21 3.199865e-01 4.390925e-01 5000.0 2.819755e-02 6.365037e-03
</event>
<event>
4 6 1.0 5000.0 7.905138e-03 7.739137e-02
21 -1 0 0 103 101  0.000000e+00  0.000000e+00  2.913150e+03  2.913150e+03 0.0 0.0 9.0
21 -1 0 0 101 102  0.000000e+00  0.000000e+00 -1.973905e+03  1.973905e+03 0.0 0.0 9.0
22  1 1 2   0   0  9.788831e+02  2.157653e+03  8.462394e+02  2.515909e+03 0.0 0.0 9.0
21  1 1 2 103 102 -9.788831e+02 -2.157653e+03  9.300584e+01  2.371145e+03 0.0 0.0 9.0
#pdf 21 21 4.481769e-01 3.036776e-01 5000.0 5.647513e-03 3.445875e-02
</event>
<event>
4 6 1.0 5000.0 7.905138e-03 7.739137e-02
21 -1 0 0 101 102  0.000000e+00  0.000000e+00  3.048038e+03  3.048038e+03 0.0 0.0 9.0
21 -1 0 0 103 101  0.000000e+00  0.000000e+00 -1.860931e+03  1.860931e+03 0.0 0.0 9.0
21  1 1 2 103 102  1.350284e+03 -1.487308e+03  1.912077e+03  2.773335e+03 0.0 0.0 9.0
22  1 1 2   0   0 -1.350284e+03  1.487308e+03 -7.249703e+02  2.135634e+03 0.0 0.0 9.0
#pdf 21 21 4.689289e-01 2.862971e-01 5000.0 4.295627e-03 4.260739e-02
</event>
<event>
4 6 1.0 5000.0 7.905138e-03 7.739137e-02
21 -1 0 0 103 101  0.000000e+00  0.000000e+00  2.867877e+03  2.867877e+03 0.0 0.0 9.0
21 -1 0 0 101 102  0.000000e+00  0.000000e+00 -2.228382e+03  2.228382e+03 0.0 0.0 9.0
21  1 1 2 103 102 -1.199159e+03 -4.481859e+02  2.516994e+03  2.823847e+03 0.0 0.0 9.0
22  1 1 2   0   0  1.199159e+03  4.481859e+02 -1.877499e+03  2.272412e+03 0.0 0.0 9.0
#pdf 21 21 4.412118e-01 3.428280e-01 5000.0 6.191867e-03 2.131273e-02
</event>
<event>
4 6 1.0 5000.0 7.905138e-03 7.739137e-02
21 -1 0 0 101 102  0.000000e+00  0.000000e+00  2.986098e+03  2.986098e+03 0.0 0.0 9.0
21 -1 0 0 103 101  0.000000e+00  0.000000e+00 -2.233493e+03  2.233493e+03 0.0 0.0 9.0
22  1 1 2   0   0 -1.596646e+03 -1.368345e+03  1.891396e+03  2.828255e+03 0.0 0.0 9.0
21  1 1 2 103 102  1.596646e+03  1.368345e+03 -1.138791e+03  2.391337e+03 0.0 0.0 9.0
#pdf 21 21 4.593997e-01 3.436144e-01 5000.0 4.874349e-03 2.110886e-02
</event>
<event>
4 6 1.0 5000.0 7.905138e-03 7.739137e-02
21 -1 0 0 103 101  0.000000e+00  0.000000e+00  2.828497e+03  2.828497e+03 0.0 0.0 9.0
21 -1 0 0 101 102  0.000000e+00  0.000000e+00 -1.993850e+03  1.993850e+03 0.0 0.0 9.0
22  1 1 2   0   0 -1.764445e+03 -1.375465e+03 -3.913911e+02  2.271202e+03 0.0 0.0 9.0
21  1 1 2 103 102  1.764445e+03  1.375465e+03  1.226038e+03  2.551145e+03 0.0 0.0 9.0
#pdf 21 21 4.351534e-01 3.067461e-01 5000.0 6.695477e-03 3.319814e-02
</event>
<event>
4 6 1.0 5000.0 7.905138e-03 7.739137e-02
21 -1 0 0 101 102  0.000000e+00  0.000000e+00  2.130244e+03  2.130244e+03 0.0 0.0 9.0
21 -1 0 0 103 101  0.000000e+00  0.000000e+00 -2.989686e+03  2.989686e+03 0.0 0.0 9.0
22  1 1 2   0   0 -8.886918e+02 -4.997615e+02  1.912019e+03  2.166876e+03 0.0 0.0 9.0
21  1 1 2 103 102  8.886918e+02  4.997615e+02 -2.771461e+03  2.953054e+03 0.0 0.0 9.0
#pdf 21 21 3.277299e-01 4.599517e-01 5000.0 2.564899e-02 4.838625e-03
</event>
<event>
4 6 1.0 5000.0 7.905138e-03 7.739137e-02
21 -1 0 0 103 101  0.000000e+00  0.000000e+00  2.080491e+03  2.080491e+03 0.0 0.0 9.0
21 -1 0 0 101 102  0.000000e+00  0.000000e+00 -2.923912e+03  2.923912e+03 0.0 0.0 9.0
22  1 1 2   0   0  1.974705e+03  1.247091e+03  3.825589e+02  2.366653e+03 0.0 0.0 9.0
21  1 1 2 103 102 -1.974705e+03 -1.247091e+03 -1.225980e+03  2.637750e+03 0.0 0.0 9.0
#pdf 21 21 3.200755e-01 4.498326e-01 5000.0 2.816682e-02 5.529159e-03
</event>
<event>
4 6 1.0 5000.0 7.905138e-03 7.739137e-02
21 -1 0 0 101 102  0.000000e+00  0.000000e+00  3.896625e+03  3.896625e+03 0.0 0.0 9.0
21 -1 0 0 103 101  0.000000e+00  0.000000e+00 -1.878593e+03  1.878593e+03 0.0 0.0 9.0
22  1 1 2   0   0 -3.452765e+01  2.607913e+03  1.776987e+03  3.155961e+03 0.0 0.0 9.0
21  1 1 2 103 102  3.452765e+01 -2.607913e+03  2.410449e+02  2.619257e+03 0.0 0.0 9.0
#pdf 21 21 5.994807e-01 2.890143e-01 5000.0 6.471939e-04 4.122814e-02
</event>
<event>
4 6 1.0 5000.0 7.905138e-03 7.739137e-02
21 -1 0 0 101 102  0.000000e+00  0.000000e+00  3.977903e+03  3.977903e+03 0.0 0.0 9.0
21 -1 0 0 103 101  0.000000e+00  0.000000e+00 -1.450374e+03  1.450374e+03 0.0 0.0 9.0
22  1 1 2   0   0  2.051327e+03  7.746255e+02  1.557880e+02  2.198239e+03 0.0 0.0 9.0
21  1 1 2 103 102 -2.051327e+03 -7.746255e+02  2.371742e+03  3.230038e+03 0.0 0.0 9.0
#pdf 21 21 6.119851e-01 2.231344e-01 5000.0 5.287284e-04 9.344883e-02
</event>
<event>
4 6 1.0 5000.0 7.905138e-03 7.739137e-02
21 -1 0 0 103 101  0.000000e+00  0.000000e+00  1.592691e+03  1.592691e+03 0.0 0.0 9.0
21 -1 0 0 101 102  0.000000e+00  0.000000e+00 -2.985514e+03  2.985514e+03 0.0 0.0 9.0
22  1 1 2   0   0  8.864320e+02  1.159855e+03 -2.396885e+03  2.806436e+03 0.0 0.0 9.0
21  1 1 2 103 102 -8.864320e+02 -1.159855e+03  1.004062e+03  1.771769e+03 0.0 0.0 9.0
#pdf 21 21 2.450294e-01 4.593099e-01 5000.0 7.093245e-02 4.880189e-03
</event>
<event>
4 6 1.0 5000.0 7.905138e-03 7.739137e-02
21 -1 0 0 101 102  0.000000e+00  0.000000e+00  1.702990e+03  1.702990e+03 0.0 0.0 9.0
21 -1 0 0 103 101  0.000000e+00  0.000000e+00 -3.452658e+03  3.452658e+03 0.0 0.0 9.0
21  1 1 2 103 102 -5.715943e+02 -1.148303e+02  1.627370e+03  1.728653e+03 0.0 0.0 9.0
22  1 1 2   0   0  5.715943e+02  1.148303e+02 -3.377038e+03  3.426995e+03 0.0 0.0 9.0
#pdf 21 21 2.619984e-01 5.311781e-01 5000.0 5.745527e-02 1.819100e-03
</event>
<event>
4 6 1.0 5000.0 7.905138e-03 7.739137e-02
21 -1 0 0 103 101  0.000000e+00  0.000000e+00  1.661100e+03  1.661100e+03 0.0 0.0 9.0
21 -1 0 0 101 102  0.000000e+00  0.000000e+00 -2.758880e+03  2.758880e+03 0.0 0.0 9.0
22  1 1 2   0   0 -8.864425e+02 -9.124148e+02 -2.326356e+03  2.651455e+03 0.0 0.0 9.0
21  1 1 2 103 102  8.864425e+02  9.124148e+02  1.228576e+03  1.768525e+03 0.0 0.0 9.0
#pdf 21 21 2.555538e-01 4.244431e-01 5000.0 6.228443e-02 7.681003e-03
</event>
<event>
4 6 1.0 5000.0 7.905138e-03 7.739137e-02
21 -1 0 0 101 102  0.000000e+00  0.000000e+00  3.906792e+03  3.906792e+03 0.0 0.0 9.0
21 -1 0 0 103 101  0.000000e+00  0.000000e+00 -1.711023e+03  1.711023e+03 0.0 0.0 9.0
22  1 1 2   0   0 -2.032146e+03  1.982657e+02  2.821053e+03  3.482422e+03 0.0 0.0 9.0
21  1 1 2 103 102  2.032146e+03 -1.982657e+02 -6.252840e+02  2.135394e+03 0.0 0.0 9.0
#pdf 21 21 6.010450e-01 2.632344e-01 5000.0 6.312792e-04 5.657891e-02
</event>
<event>
4 6 1.0 5000.0 7.905138e-03 7.739137e-02
21 -1 0 0 101 102  0.000000e+00  0.000000e+00  2.556797e+03  2.556797e+03 0.0 0.0 9.0
21 -1 0 0 103 101  0.000000e+00  0.000000e+00 -2.353099e+03  2.353099e+03 0.0 0.0 9.0
21  1 1 2 103 102 -3.071231e+02  1.582306e+03 -1.748630e+03  2.378177e+03 0.0 0.0 9.0
22  1 1 2   0   0  3.071231e+02 -1.582306e+03  1.952329e+03  2.531719e+03 0.0 0.0 9.0
#pdf 21 21 3.933534e-01 3.620152e-01 5000.0 1.139265e-02 1.682811e-02
</event>
<event>
4 6 1.0 5000.0 7.905138e-03 7.739137e-02
21 -1 0 0 103 101  0.000000e+00  0.000000e+00  3.735119e+03  3.735119e+03 0.0 0.0 9.0
21 -1 0 0 101 102  0.000000e+00  0.000000e+00 -1.594999e+03  1.594999e+03 0.0 0.0 9.0
21  1 1 2 103 102  8.698399e+01  7.613469e+02  3.600369e+03  3.681015e+03 0.0 0.0 9.0
22  1 1 2   0   0 -8.698399e+01 -7.613469e+02 -1.460249e+03  1.649103e+03 0.0 0.0 9.0
#pdf 21 21 5.746337e-01 2.453845e-01 5000.0 9.543866e-04 7.060672e-02
</event>
<event>
4 6 1.0 5000.0 7.905138e-03 7.739137e-02
21 -1 0 0 103 101  0.000000e+00  0.000000e+00  1.871364e+03  1.871364e+03 0.0 0.0 9.0
21 -1 0 0 101 102  0.000000e+00  0.000000e+00 -3.304382e+03  3.304382e+03 0.0 0.0 9.0
21  1 1 2 103 102 -1.253654e+03 -3.280002e+02 -2.925228e+03  3.199405e+03 0.0 0.0 9.0
22  1 1 2   0   0  1.253654e+03  3.280002e+02  1.492210e+03  1.976341e+03 0.0 0.0 9.0
#pdf 21 21 2.879022e-01 5.083665e-01 5000.0 4.178675e-02 2.509787e-03
</event>
<event>
4 6 1.0 5000.0 7.905138e-03 7.739137e-02
21 -1 0 0 101 102  0.000000e+00  0.000000e+00  2.706145e+03  2.706145e+03 0.0 0.0 9.0
21 -1 0 0 103 101  0.000000e+00  0.000000e+00 -2.133795e+03  2.133795e+03 0.0 0.0 9.0
21  1 1 2 103 102  3.106104e+02  1.798349e+03 -1.288145e+03  2.233798e+03 0.0 0.0 9.0
22  1 1 2   0   0 -3.106104e+02 -1.798349e+03  1.860495e+03  2.606142e+03 0.0 0.0 9.0
#pdf 21 21 4.163300e-01 3.282762e-01 5000.0 8.519336e-03 2.547814e-02
</event>
<event>
4 6 1.0 5000.0 7.905138e-03 7.739137e-02
21 -1 0 0 103 101  0.000000e+00  0.000000e+00  1.951692e+03  1.951692e+03 0.0 0.0 9.0
21 -1 0 0 101 102  0.000000e+00  0.000000e+00 -3.056449e+03  3.056449e+03 0.0 0.0 9.0
21  1 1 2 103 102  1.237451e+03 -1.262464e+03  1.175458e+03  2.122923e+03 0.0 0.0 9.0
22  1 1 2   0   0 -1.237451e+03  1.262464e+03 -2.280215e+03  2.885218e+03 0.0 0.0 9.0
#pdf 21 21 3.002603e-01 4.702229e-01 5000.0 3.589500e-02 4.222227e-03
</event>
<event>
4 6 1.0 5000.0 7.905138e-03 7.739137e-02
21 -1 0 0 101 102  0.000000e+00  0.000000e+00  2.425988e+03  2.425988e+03 0.0 0.0 9.0
21 -1 0 0 103 101  0.000000e+00  0.000000e+00 -2.567307e+03  2.567307e+03 0.0 0.0 9.0
21  1 1 2 103 102  4.638523e+02 -5.774238e+02 -2.454822e+03  2.564124e+03 0.0 0.0 9.0
22  1 1 2   0   0 -4.638523e+02  5.774238e+02  2.313503e+03  2.429171e+03 0.0 0.0 9.0
#pdf 21 21 3.732289e-01 3.949703e-01 5000.0 1.464650e-02 1.116354e-02
</event>
<event>
4 6 1.0 5000.0 7.905138e-03 7.739137e-02
21 -1 0 0 101 102  0.000000e+00  0.000000e+00  1.449568e+03  1.449568e+03 0.0 0.0 9.0
21 -1 0 0 103 101  0.000000e+00  0.000000e+00 -3.910710e+03  3.910710e+03 0.0 0.0 9.0
21  1 1 2 103 102  9.760861e+02 -2.133473e+03 -1.686971e+03  2.889693e+03 0.0 0.0 9.0
22  1 1 2   0   0 -9.760861e+02  2.133473e+03 -7.741710e+02  2.470586e+03 0.0 0.0 9.0
#pdf 21 21 2.230105e-01 6.016477e-01 5000.0 9.359717e-02 6.252384e-04
</event>
<event>
4 6 1.0 5000.0 7.905138e-03 7.739137e-02
21 -1 0 0 103 101  0.000000e+00  0.000000e+00  1.816143e+03  1.816143e+03 0.0 0.0 9.0
21 -1 0 0 101 102  0.000000e+00  0.000000e+00 -2.961745e+03  2.961745e+03 0.0 0.0 9.0
22  1 1 2   0   0  5.692147e+02 -1.125403e+03  1.432067e+03  1.908233e+03 0.0 0.0 9.0
21  1 1 2 103 102 -5.692147e+02  1.125403e+03 -2.577669e+03  2.869654e+03 0.0 0.0 9.0
#pdf 21 21 2.794066e-01 4.556530e-01 5000.0 4.636244e-02 5.123629e-03
</event>
<event>
4 6 1.0 5000.0 7.905138e-03 7.739137e-02
21 -1 0 0 103 101  0.000000e+00  0.000000e+00  3.492455e+03  3.492455e+03 0.0 0.0 9.0
21 -1 0 0 101 102  0.000000e+00  0.000000e+00 -1.326917e+03  1.326917e+03 0.0 0.0 9.0
21  1 1 2 103 102  1.833900e+03 -8.748582e+02  2.868100e+02  2.052030e+03 0.0 0.0 9.0
22  1 1 2   0   0 -1.833900e+03  8.748582e+02  1.878728e+03  2.767342e+03 0.0 0.0 9.0
#pdf 21 21 5.373007e-01 2.041411e-01 5000.0 1.663791e-03 1.191660e-01
</event>
<event>
4 6 1.0 5000.0 7.905138e-03 7.739137e-02
21 -1 0 0 103 101  0.000000e+00  0.000000e+00  2.715538e+03  2.715538e+03 0.0 0.0 9.0
21 -1 0 0 101 102  0.000000e+00  0.000000e+00 -2.370105e+03  2.370105e+03 0.0 0.0 9.0
21  1 1 2 103 102  1.246537e+03 -2.206652e+03  5.868322e+01  2.535076e+03 0.0 0.0 9.0
22  1 1 2   0   0 -1.246537e+03  2.206652e+03  2.867503e+02  2.550567e+03 0.0 0.0 9.0
#pdf 21 21 4.177751e-01 3.646315e-01 5000.0 8.364088e-03 1.629489e-02
</event>
<event>
4 6 1.0 5000.0 7.905138e-03 7.739137e-02
21 -1 0 0 103 101  0.000000e+00  0.000000e+00  2.292804e+03  2.292804e+03 0.0 0.0 9.0
21 -1 0 0 101 102  0.000000e+00  0.000000e+00 -2.772540e+03  2.772540e+03 0.0 0.0 9.0
22  1 1 2   0   0  1.178196e+03 -3.120865e+02 -2.456947e+03  2.742651e+03 0.0 0.0 9.0
21  1 1 2 103 102 -1.178196e+03  3.120865e+02  1.977211e+03  2.322694e+03 0.0 0.0 9.0
#pdf 21 21 3.527391e-01 4.265447e-01 5000.0 1.886917e-02 7.475980e-03
</event>
<event>
4 6 1.0 5000.0 7.905138e-03 7.739137e-02
21 -1 0 0 103 101  0.000000e+00  0.000000e+00  4.276486e+03  4.276486e+03 0.0 0.0 9.0
21 -1 0 0 101 102  0.000000e+00  0.000000e+00 -1.463116e+03  1.463116e+03 0.0 0.0 9.0
22  1 1 2   0   0 -1.511577e+02 -2.325012e+03  2.450941e+03  3.381662e+03 0.0 0.0 9.0
21  1 1 2 103 102  1.511577e+02  2.325012e+03  3.624287e+02  2.357940e+03 0.0 0.0 9.0
#pdf 21 21 6.579210e-01 2.250948e-01 5000.0 2.408189e-04 9.113578e-02
</event>
<event>
4 6 1.0 5000.0 7.905138e-03 7.739137e-02
21 -1 0 0 103 101  0.000000e+00  0.000000e+00  1.788529e+03  1.788529e+03 0.0 0.0 9.0
21 -1 0 0 101 102  0.000000e+00  0.000000e+00 -3.169093e+03  3.169093e+03 0.0 0.0 9.0
21  1 1 2 103 102 -4.475814e+02  1.948403e+03  6.557956e+02  2.103965e+03 0.0 0.0 9.0
22  1 1 2   0   0  4.475814e+02 -1.948403e+03 -2.036359e+03  2.853658e+03 0.0 0.0 9.0
#pdf 21 21 2.751584e-01 4.875528e-01 5000.0 4.884860e-02 3.341679e-03
</event>
<event>
4 6 1.0 5000.0 7.905138e-03 7.739137e-02
21 -1 0 0 101 102  0.000000e+00  0.000000e+00  3.073784e+03  3.073784e+03 0.0 0.0 9.0
21 -1 0 0 103 101  0.000000e+00  0.000000e+00 -1.849962e+03  1.849962e+03 0.0 0.0 9.0
22  1 1 2   0   0  2.161392e+03 -8.743159e+02  1.128459e+03  2.590264e+03 0.0 0.0 9.0
21  1 1 2 103 102 -2.161392e+03  8.743159e+02  9.536297e+01  2.333482e+03 0.0 0.0 9.0
#pdf 21 21 4.728898e-01 2.846095e-01 5000.0 4.074426e-03 4.349070e-02
</event>
<event>
4 6 1.0 5000.0 7.905138e-03 7.739137e-02
21 -1 0 0 101 102  0.000000e+00  0.000000e+00  3.523293e+03  3.523293e+03 0.0 0.0 9.0
21 -1 0 0 103 101  0.000000e+00  0.000000e+00 -1.741832e+03  1.741832e+03 0.0 0.0 9.0
21  1 1 2 103 102 -2.194079e+02 -2.452019e+03  1.184550e+03  2.731976e+03 0.0 0.0 9.0
22  1 1 2   0   0  2.194079e+02  2.452019e+03  5.969115e+02  2.533148e+03 0.0 0.0 9.0
#pdf 21 21 5.420451e-01 2.679741e-01 5000.0 1.553205e-03 5.335998e-02
</event>
<event>
4 6 1.0 5000.0 7.905138e-03 7.739137e-02
21 -1 0 0 103 101  0.000000e+00  0.000000e+00  3.042078e+03  3.042078e+03 0.0 0.0 9.0
21 -1 0 0 101 102  0.000000e+00  0.000000e+00 -1.981829e+03  1.981829e+03 0.0 0.0 9.0
21  1 1 2 103 102  1.830527e+03  2.599665e+02 -1.122798e+03  2.163120e+03 0.0 0.0 9.0
22  1 1 2   0   0 -1.830527e+03 -2.599665e+02  2.183046e+03  2.860787e+03 0.0 0.0 9.0
#pdf 21 21 4.680119e-01 3.048968e-01 5000.0 4.348327e-03 3.395457e-02
</event>
<event>
4 6 1.0 5000.0 7.905138e-03 7.739137e-02
21 -1 0 0 101 102  0.000000e+00  0.000000e+00  1.677496e+03  1.677496e+03 0.0 0.0 9.0
21 -1 0 0 103 101  0.000000e+00  0.000000e+00 -3.739268e+03  3.739268e+03 0.0 0.0 9.0
22  1 1 2   0   0  1.647416e+03  4.442644e+02  9.517215e+02  1.953747e+03 0.0 0.0 9.0
21  1 1 2 103 102 -1.647416e+03 -4.442644e+02 -3.013493e+03  3.463018e+03 0.0 0.0 9.0
#pdf 21 21 2.580764e-01 5.752720e-01 5000.0 6.034553e-02 9.450714e-04
</event>
<event>
4 6 1.0 5000.0 7.905138e-03 7.739137e-02
21 -1 0 0 101 102  0.000000e+00  0.000000e+00  3.896908e+03  3.896908e+03 0.0 0.0 9.0
21 -1 0 0 103 101  0.000000e+00  0.000000e+00 -1.639727e+03  1.639727e+03 0.0 0.0 9.0
21  1 1 2 103 102 -1.675766e+03 -5.236008e+02 -8.630954e+02  1.956344e+03 0.0 0.0 9.0
22  1 1 2   0   0  1.675766e+03  5.236008e+02  3.120277e+03  3.580290e+03 0.0 0.0 9.0
#pdf 21 21 5.995242e-01 2.522656e-01 5000.0 6.467462e-04 6.489309e-02
</event>
<event>
4 6 1.0 5000.0 7.905138e-03 7.739137e-02
21 -1 0 0 101 102  0.000000e+00  0.000000e+00  3.581168e+03  3.581168e+03 0.0 0.0 9.0
21 -1 0 0 103 101  0.000000e+00  0.000000e+00 -1.729458e+03  1.729458e+03 0.0 0.0 9.0
21  1 1 2 103 102 -1.722224e+03  9.635266e+02 -6.919326e+02  2.091222e+03 0.0 0.0 9.0
22  1 1 2   0   0  1.722224e+03 -9.635266e+02  2.543643e+03  3.219404e+03 0.0 0.0 9.0
#pdf 21 21 5.509489e-01 2.660704e-01 5000.0 1.362287e-03 5.462785e-02
</event>
<event>
4 6 1.0 5000.0 7.905138e-03 7.739137e-02
21 -1 0 0 103 101  0.000000e+00  0.000000e+00  1.377450e+03  1.377450e+03 0.0 0.0 9.0
21 -1 0 0 101 102  0.000000e+00  0.000000e+00 -3.289212e+03  3.289212e+03 0.0 0.0 9.0
22  1 1 2   0   0  1.855527e+03  7.942716e+02 -2.149248e+02  2.029788e+03 0.0 0.0 9.0
21  1 1 2 103 102 -1.855527e+03 -7.942716e+02 -1.696837e+03  2.636874e+03 0.0 0.0 9.0
#pdf 21 21 2.119154e-01 5.060326e-01 5000.0 1.078638e-01 2.592377e-03
</event>
<event>
4 6 1.0 5000.0 7.905138e-03 7.739137e-02
21 -1 0 0 101 102  0.000000e+00  0.000000e+00  1.989943e+03  1.989943e+03 0.0 0.0 9.0
21 -1 0 0 103 101  0.000000e+00  0.000000e+00 -2.996660e+03  2.996660e+03 0.0 0.0 9.0
21  1 1 2 103 102 -3.356954e+02  7.250960e+02  1.852691e+03  2.017652e+03 0.0 0.0 9.0
22  1 1 2   0   0  3.356954e+02 -7.250960e+02 -2.859408e+03  2.968951e+03 0.0 0.0 9.0
#pdf 21 21 3.061451e-01 4.610246e-01 5000.0 3.344281e-02 4.769998e-03
</event>
<event>
4 6 1.0 5000.0 7.905138e-03 7.739137e-02
21 -1 0 0 101 102  0.000000e+00  0.000000e+00  2.452753e+03  2.452753e+03 0.0 0.0 9.0
21 -1 0 0 103 101  0.000000e+00  0.000000e+00 -2.524393e+03  2.524393e+03 0.0 0.0 9.0
21  1 1 2 103 102  1.256658e+03 -1.308426e+03  1.667454e+03  2.464056e+03 0.0 0.0 9.0
22  1 1 2   0   0 -1.256658e+03  1.308426e+03 -1.739094e+03  2.513090e+03 0.0 0.0 9.0
#pdf 21 21 3.773466e-01 3.883682e-01 5000.0 1.392685e-02 1.213050e-02
</event>
<event>
4 6 1.0 5000.0 7.905138e-03 7.739137e-02
21 -1 0 0 103 101  0.000000e+00  0.000000e+00  2.436669e+03  2.436669e+03 0.0 0.0 9.0
21 -1 0 0 101 102  0.000000e+00  0.000000e+00 -2.401631e+03  2.401631e+03 0.0 0.0 9.0
22  1 1 2   0   0  1.226070e+03 -8.288561e+02 -1.896096e+03  2.405292e+03 0.0 0.0 9.0
21  1 1 2 103 102 -1.226070e+03  8.288561e+02  1.931134e+03  2.433008e+03 0.0 0.0 9.0
#pdf 21 21 3.748722e-01 3.694816e-01 5000.0 1.435664e-02 1.533438e-02
</event>
<event>
4 6 1.0 5000.0 7.905138e-03 7.739137e-02
21 -1 0 0 103 101  0.000000e+00  0.000000e+00  3.009372e+03  3.009372e+03 0.0 0.0 9.0
21 -1 0 0 101 102  0.000000e+00  0.000000e+00 -2.066150e+03  2.066150e+03 0.0 0.0 9.0
22  1 1 2   0   0  2.332550e+03 -5.212621e+02  1.195065e+03  2.672206e+03 0.0 0.0 9.0
21  1 1 2 103 102 -2.332550e+03  5.212621e+02 -2.518425e+02  2.403316e+03 0.0 0.0 9.0
#pdf 21 21 4.629803e-01 3.178692e-01 5000.0 4.647871e-03 2.893927e-02
</event>
<event>
4 6 1.0 5000.0 7.905138e-03 7.739137e-02
21 -1 0 0 101 102  0.000000e+00  0.000000e+00  1.892002e+03  1.892002e+03 0.0 0.0 9.0
21 -1 0 0 103 101  0.000000e+00  0.000000e+00 -3.005602e+03  3.005602e+03 0.0 0.0 9.0
21  1 1 2 103 102  1.435161e+03 -5.933222e+01  1.397923e+03  2.004344e+03 0.0 0.0 9.0
22  1 1 2   0   0 -1.435161e+03  5.933222e+01 -2.511522e+03  2.893260e+03 0.0 0.0 9.0
#pdf 21 21 2.910773e-01 4.624003e-01 5000.0 4.021107e-02 4.683678e-03
</event>
<event>
4 6 1.0 5000.0 7.905138e-03 7.739137e-02
21 -1 0 0 103 101  0.000000e+00  0.000000e+00  4.133133e+03  4.133133e+03 0.0 0.0 9.0
21 -1 0 0 101 102  0.000000e+00  0.000000e+00 -1.338515e+03  1.338515e+03 0.0 0.0 9.0
22  1 1 2   0   0  1.227629e+02  7.299457e+02 -1.199512e+03  1.409510e+03 0.0 0.0 9.0
21  1 1 2 103 102 -1.227629e+02 -7.299457e+02  3.994130e+03  4.062138e+03 0.0 0.0 9.0
#pdf 21 21 6.358666e-01 2.059254e-01 5000.0 3.543572e-04 1.164250e-01
</event>
<event>
4 6 1.0 5000.0 7.905138e-03 7.739137e-02
21 -1 0 0 101 102  0.000000e+00  0.000000e+00  2.571899e+03  2.571899e+03 0.0 0.0 9.0
21 -1 0 0 103 101  0.000000e+00  0.000000e+00 -2.458006e+03  2.458006e+03 0.0 0.0 9.0
22  1 1 2   0   0 -1.090681e+03  7.881898e+02 -2.067490e+03  2.466849e+03 0.0 0.0 9.0
21  1 1 2 103 102  1.090681e+03 -7.881898e+02  2.181383e+03  2.563057e+03 0.0 0.0 9.0
#pdf 21 21 3.956768e-01 3.781548e-01 5000.0 1.106490e-02 1.378835e-02
</event>
<event>
4 6 1.0 5000.0 7.905138e-03 7.739137e-02
21 -1 0 0 103 101  0.000000e+00  0.000000e+00  3.385668e+03  3.385668e+03 0.0 0.0 9.0
21 -1 0 0 101 102  0.000000e+00  0.000000e+00 -1.607859e+03  1.607859e+03 0.0 0.0 9.0
21  1 1 2 103 102  2.793534e+02  2.287836e+03  5.009323e+02  2.358636e+03 0.0 0.0 9.0
22  1 1 2   0   0 -2.793534e+02 -2.287836e+03  1.276877e+03  2.634890e+03 0.0 0.0 9.0
#pdf 21 21 5.208720e-01 2.473629e-01 5000.0 2.105525e-03 6.892135e-02
</event>
<event>
4 6 1.0 5000.0 7.905138e-03 7.739137e-02
21 -1 0 0 101 102  0.000000e+00  0.000000e+00  2.476093e+03  2.476093e+03 0.0 0.0 9.0
21 -1 0 0 103 101  0.000000e+00  0.000000e+00 -2.812840e+03  2.812840e+03 0.0 0.0 9.0
21  1 1 2 103 102  8.453941e+01  1.844188e+03  1.721376e+03  2.524146e+03 0.0 0.0 9.0
22  1 1 2   0   0 -8.453941e+01 -1.844188e+03 -2.058123e+03  2.764787e+03 0.0 0.0 9.0
#pdf 21 21 3.809373e-01 4.327446e-01 5000.0 1.331905e-02 6.904594e-03
</event>
<event>
4 6 1.0 5000.0 7.905138e-03 7.739137e-02
21 -1 0 0 103 101  0.000000e+00  0.000000e+00  1.966821e+03  1.966821e+03 0.0 0.0 9.0
21 -1 0 0 101 102  0.000000e+00  0.000000e+00 -2.760458e+03  2.760458e+03 0.0 0.0 9.0
22  1 1 2   0   0 -1.381633e+03  1.167835e+02  1.502782e+03  2.044726e+03 0.0 0.0 9.0
21  1 1 2 103 102  1.381633e+03 -1.167835e+02 -2.296419e+03  2.682553e+03 0.0 0.0 9.0
#pdf 21 21 3.025878e-01 4.246858e-01 5000.0 3.491269e-02 7.657086e-03
</event>
<event>
4 6 1.0 5000.0 7.905138e-03 7.739137e-02
21 -1 0 0 103 101  0.000000e+00  0.000000e+00  2.704127e+03  2.704127e+03 0.0 0.0 9.0
21 -1 0 0 101 102  0.000000e+00  0.000000e+00 -2.670933e+03  2.670933e+03 0.0 0.0 9.0
22  1 1 2   0   0 -1.629614e+03 -1.752795e+03 -1.205970e+03  2.679980e+03 0.0 0.0 9.0
21  1 1 2 103 102  1.629614e+03  1.752795e+03  1.239164e+03  2.695080e+03 0.0 0.0 9.0
#pdf 21 21 4.160196e-01 4.109128e-01 5000.0 8.553046e-03 9.127090e-03
</event>
<event>
4 6 1.0 5000.0 7.905138e-03 7.739137e-02
21 -1 0 0 103 101  0.000000e+00  0.000000e+00  2.320018e+03  2.320018e+03 0.0 0.0 9.0
21 -1 0 0 101 102  0.000000e+00  0.000000e+00 -2.541808e+03  2.541808e+03 0.0 0.0 9.0
22  1 1 2   0   0  5.015558e+02  5.392129e+02  2.205546e+03  2.325240e+03 0.0 0.0 9.0
21  1 1 2 103 102 -5.015558e+02 -5.392129e+02 -2.427336e+03  2.536586e+03 0.0 0.0 9.0
#pdf 21 21 3.569258e-01 3.910474e-01 5000.0 1.791182e-02 1.172784e-02
</event>
<event>
4 6 1.0 5000.0 7.905138e-03 7.739137e-02
21 -1 0 0 101 102  0.000000e+00  0.000000e+00  1.985781e+03  1.985781e+03 0.0 0.0 9.0
21 -1 0 0 103 101  0.000000e+00  0.000000e+00 -2.969012e+03  2.969012e+03 0.0 0.0 9.0
22  1 1 2   0   0 -2.114829e+03  7.146486e+02  4.830611e+02  2.283981e+03 0.0 0.0 9.0
21  1 1 2 103 102  2.114829e+03 -7.146486e+02 -1.466292e+03  2.670812e+03 0.0 0.0 9.0
#pdf 21 21 3.055048e-01 4.567711e-01 5000.0 3.370473e-02 5.048086e-03
</event>
<event>
4 6 1.0 5000.0 7.905138e-03 7.739137e-02
21 -1 0 0 103 101  0.000000e+00  0.000000e+00  2.845104e+03  2.845104e+03 0.0 0.0 9.0
21 -1 0 0 101 102  0.000000e+00  0.000000e+00 -2.262019e+03  2.262019e+03 0.0 0.0 9.0
21  1 1 2 103 102 -1.050759e+03  6.296889e+02 -1.944583e+03  2.298261e+03 0.0 0.0 9.0
22  1 1 2   0   0  1.050759e+03 -6.296889e+02  2.527668e+03  2.808862e+03 0.0 0.0 9.0
#pdf 21 21 4.377083e-01 3.480030e-01 5000.0 6.479733e-03 2.000499e-02
</event>
<event>
4 6 1.0 5000.0 7.905138e-03 7.739137e-02
21 -1 0 0 103 101  0.000000e+00  0.000000e+00  2.019641e+03  2.019641e+03 0.0 0.0 9.0
21 -1 0 0 101 102  0.000000e+00  0.000000e+00 -2.897148e+03  2.897148e+03 0.0 0.0 9.0
22  1 1 2   0   0 -4.031035e+02  1.465261e+03  1.473898e+03  2.117040e+03 0.0 0.0 9.0
21  1 1 2 103 102  4.031035e+02 -1.465261e+03 -2.351405e+03  2.799748e+03 0.0 0.0 9.0
#pdf 21 21 3.107140e-01 4.457150e-01 5000.0 3.161554e-02 5.831486e-03
</event>
<event>
4 6 1.0 5000.0 7.905138e-03 7.739137e-02
21 -1 0 0 103 101  0.000000e+00  0.000000e+00  2.525616e+03  2.525616e+03 0.0 0.0 9.0
21 -1 0 0 101 102  0.000000e+00  0.000000e+00 -2.368529e+03  2.368529e+03 0.0 0.0 9.0
21  1 1 2 103 102  7.759464e+02 -8.311477e+02 -2.088004e+03  2.377533e+03 0.0 0.0 9.0
22  1 1 2   0   0 -7.759464e+02  8.311477e+02  2.245091e+03  2.516612e+03 0.0 0.0 9.0
#pdf 21 21 3.885563e-01 3.643890e-01 5000.0 1.210175e-02 1.634384e-02
</event>
<event>
4 6 1.0 5000.0 7.905138e-03 7.739137e-02
21 -1 0 0 103 101  0.000000e+00  0.000000e+00  2.731846e+03  2.731846e+03 0.0 0.0 9.0
21 -1 0 0 101 102  0.000000e+00  0.000000e+00 -2.041945e+03  2.041945e+03 0.0 0.0 9.0
21  1 1 2 103 102  2.306540e+03 -2.092906e+02  8.128438e+02  2.454515e+03 0.0 0.0 9.0
22  1 1 2   0   0 -2.306540e+03  2.092906e+02 -1.229425e+02  2.319277e+03 0.0 0.0 9.0
#pdf 21 21 4.202841e-01 3.141454e-01 5000.0 8.100887e-03 3.030021e-02
</event>
<event>
4 6 1.0 5000.0 7.905138e-03 7.739137e-02
21 -1 0 0 101 102  0.000000e+00  0.000000e+00  2.205972e+03  2.205972e+03 0.0 0.0 9.0
21 -1 0 0 103 101  0.000000e+00  0.000000e+00 -2.911334e+03  2.911334e+03 0.0 0.0 9.0
22  1 1 2   0   0  2.517630e+03  2.895128e+02 -3.460661e+02  2.557741e+03 0.0 0.0 9.0
21  1 1 2 103 102 -2.517630e+03 -2.895128e+02 -3.592953e+02  2.559565e+03 0.0 0.0 9.0
#pdf 21 21 3.393803e-01 4.478975e-01 5000.0 2.223103e-02 5.667781e-03
</event>
<event>
4 6 1.0 5000.0 7.905138e-03 7.739137e-02
21 -1 0 0 103 101  0.000000e+00  0.000000e+00  2.343675e+03  2.343675e+03 0.0 0.0 9.0
21 -1 0 0 101 102  0.000000e+00  0.000000e+00 -2.697526e+03  2.697526e+03 0.0 0.0 9.0
22  1 1 2   0   0  1.664994e+03 -2.296838e+02 -2.051621e+03  2.652189e+03 0.0 0.0 9.0
21  1 1 2 103 102 -1.664994e+03  2.296838e+02  1.697770e+03  2.389013e+03 0.0 0.0 9.0
#pdf 21 21 3.605655e-01 4.150041e-01 5000.0 1.712952e-02 8.664241e-03
</event>
<event>
4 6 1.0 5000.0 7.905138e-03 7.739137e-02
21 -1 0 0 103 101  0.000000e+00  0.000000e+00  3.196098e+03  3.196098e+03 0.0 0.0 9.0
21 -1 0 0 101 102  0.000000e+00  0.000000e+00 -1.785620e+03  1.785620e+03 0.0 0.0 9.0
22  1 1 2   0   0 -1.581228e+03  1.779748e+03  4.987243e+02  2.432388e+03 0.0 0.0 9.0
21  1 1 2 103 102  1.581228e+03 -1.779748e+03  9.117537e+02  2.549330e+03 0.0 0.0 9.0
#pdf 21 21 4.917074e-01 2.747108e-01 5000.0 3.158219e-03 4.911794e-02
</event>
<event>
4 6 1.0 5000.0 7.905138e-03 7.739137e-02
21 -1 0 0 103 101  0.000000e+00  0.000000e+00  3.431648e+03  3.431648e+03 0.0 0.0 9.0
21 -1 0 0 101 102  0.000000e+00  0.000000e+00 -1.880076e+03  1.880076e+03 0.0 0.0 9.0
22  1 1 2   0   0  8.922288e+02  1.260813e+02  3.258907e+03  3.381190e+03 0.0 0.0 9.0
21  1 1 2 103 102 -8.922288e+02 -1.260813e+02 -1.707335e+03  1.930534e+03 0.0 0.0 9.0
#pdf 21 21 5.279458e-01 2.892424e-01 5000.0 1.905043e-03 4.111450e-02
</event>
<event>
4 6 1.0 5000.0 7.905138e-03 7.739137e-02
21 -1 0 0 103 101  0.000000e+00  0.000000e+00  2.848742e+03  2.848742e+03 0.0 0.0 9.0
21 -1 0 0 101 102  0.000000e+00  0.000000e+00 -1.605020e+03  1.605020e+03 0.0 0.0 9.0
21  1 1 2 103 102 -3.143318e+02 -6.153845e+02  2.729255e+03  2.815375e+03 0.0 0.0 9.0
22  1 1 2   0   0  3.143318e+02  6.153845e+02 -1.485533e+03  1.638387e+03 0.0 0.0 9.0
#pdf 21 21 4.382679e-01 2.469262e-01 5000.0 6.433196e-03 6.928664e-02
</event>
<event>
4 6 1.0 5000.0 7.905138e-03 7.739137e-02
21 -1 0 0 101 102  0.000000e+00  0.000000e+00  2.725535e+03  2.725535e+03 0.0 0.0 9.0
21 -1 0 0 103 101  0.000000e+00  0.000000e+00 -2.504308e+03  2.504308e+03 0.0 0.0 9.0
22  1 1 2   0   0 -2.197860e+03  1.280637e+03 -4.857061e+02  2.589697e+03 0.0 0.0 9.0
21  1 1 2 103 102  2.197860e+03 -1.280637e+03  7.069334e+02  2.640147e+03 0.0 0.0 9.0
#pdf 21 21 4.193131e-01 3.852782e-01 5000.0 8.201816e-03 1.261252e-02
</event>
<event>
4 6 1.0 5000.0 7.905138e-03 7.739137e-02
21 -1 0 0 101 102  0.000000e+00  0.000000e+00  3.145483e+03  3.145483e+03 0.0 0.0 9.0
21 -1 0 0 103 101  0.000000e+00  0.000000e+00 -2.162279e+03  2.162279e+03 0.0 0.0 9.0
22  1 1 2   0   0  2.200848e+03  4.954136e+02 -8.399708e+02  2.407222e+03 0.0 0.0 9.0
21  1 1 2 103 102 -2.200848e+03 -4.954136e+02  1.823175e+03  2.900540e+03 0.0 0.0 9.0
#pdf 21 21 4.839205e-01 3.326584e-01 5000.0 3.510496e-03 2.414649e-02
</event>
<event>
4 6 1.0 5000.0 7.905138e-03 7.739137e-02
21 -1 0 0 103 101  0.000000e+00  0.000000e+00  2.067365e+03  2.067365e+03 0.0 0.0 9.0
21 -1 0 0 101 102  0.000000e+00  0.000000e+00 -2.796900e+03  2.796900e+03 0.0 0.0 9.0
22  1 1 2   0   0 -1.127349e+03 -1.898930e+03  5.976227e+02  2.287794e+03 0.0 0.0 9.0
21  1 1 2 103 102  1.127349e+03  1.898930e+03 -1.327158e+03  2.576470e+03 0.0 0.0 9.0
#pdf 21 21 3.180561e-01 4.302923e-01 5000.0 2.887296e-02 7.124318e-03
</event>
<event>
4 6 1.0 5000.0 7.905138e-03 7.739137e-02
21 -1 0 0 103 101  0.000000e+00  0.000000e+00  3.587590e+03  3.587590e+03 0.0 0.0 9.0
21 -1 0 0 101 102  0.000000e+00  0.000000e+00 -2.033955e+03  2.033955e+03 0.0 0.0 9.0
21  1 1 2 103 102  1.007112e+03  2.197464e+03  2.031451e+03  3.157517e+03 0.0 0.0 9.0
22  1 1 2   0   0 -1.007112e+03 -2.197464e+03 -4.778171e+02  2.464027e+03 0.0 0.0 9.0
#pdf 21 21 5.519369e-01 3.129162e-01 5000.0 1.342562e-03 3.076509e-02
</event>
<event>
4 6 1.0 5000.0 7.905138e-03 7.739137e-02
21 -1 0 0 101 102  0.000000e+00  0.000000e+00  3.249856e+03  3.249856e+03 0.0 0.0 9.0
21 -1 0 0 103 101  0.000000e+00  0.000000e+00 -1.571074e+03  1.571074e+03 0.0 0.0 9.0
22  1 1 2   0   0  2.045424e+03 -6.325924e+02  6.877912e+01  2.142117e+03 0.0 0.0 9.0
21  1 1 2 103 102 -2.045424e+03  6.325924e+02  1.610003e+03  2.678814e+03 0.0 0.0 9.0
#pdf 21 21 4.999779e-01 2.417037e-01 5000.0 2.819215e-03 7.401358e-02
</event>
<event>
4 6 1.0 5000.0 7.905138e-03 7.739137e-02
21 -1 0 0 101 102  0.000000e+00  0.000000e+00  1.770979e+03  1.770979e+03 0.0 0.0 9.0
21 -1 0 0 103 101  0.000000e+00  0.000000e+00 -3.565621e+03  3.565621e+03 0.0 0.0 9.0
22  1 1 2   0   0 -8.794715e+02 -1.984326e+03  4.473353e+02  2.216107e+03 0.0 0.0 9.0
21  1 1 2 103 102  8.794715e+02  1.984326e+03 -2.241977e+03  3.120494e+03 0.0 0.0 9.0
#pdf 21 21 2.724584e-01 5.485571e-01 5000.0 5.049606e-02 1.411830e-03
</event>
<event>
4 6 1.0 5000.0 7.905138e-03 7.739137e-02
21 -1 0 0 103 101  0.000000e+00  0.000000e+00  3.612186e+03  3.612186e+03 0.0 0.0 9.0
21 -1 0 0 101 102  0.000000e+00  0.000000e+00 -1.317330e+03  1.317330e+03 0.0 0.0 9.0
22  1 1 2   0   0  1.739232e+03 -1.314589e+03  1.064650e+03  2.426222e+03 0.0 0.0 9.0
21  1 1 2 103 102 -1.739232e+03  1.314589e+03  1.230206e+03  2.503294e+03 0.0 0.0 9.0
#pdf 21 21 5.557209e-01 2.026661e-01 5000.0 1.270929e-03 1.214946e-01
</event>
<event>
4 6 1.0 5000.0 7.905138e-03 7.739137e-02
21 -1 0 0 101 102  0.000000e+00  0.000000e+00  2.281872e+03  2.281872e+03 0.0 0.0 9.0
21 -1 0 0 103 101  0.000000e+00  0.000000e+00 -2.673840e+03  2.673840e+03 0.0 0.0 9.0
21  1 1 2 103 102  1.635001e+03 -1.451791e+03  9.567291e+02  2.386683e+03 0.0 0.0 9.0
22  1 1 2   0   0 -1.635001e+03  1.451791e+03 -1.348696e+03  2.569029e+03 0.0 0.0 9.0
#pdf 21 21 3.510573e-01 4.113600e-01 5000.0 1.926668e-02 9.075299e-03
</event>
<event>
4 6 1.0 5000.0 7.905138e-03 7.739137e-02
21 -1 0 0 103 101  0.000000e+00  0.000000e+00  1.312341e+03  1.312341e+03 0.0 0.0 9.0
21 -1 0 0 101 102  0.000000e+00  0.000000e+00 -4.761304e+03  4.761304e+03 0.0 0.0 9.0
21  1 1 2 103 102  1.826844e+03 -1.524205e+03 -2.655979e+03  3.565780e+03 0.0 0.0 9.0
22  1 1 2   0   0 -1.826844e+03  1.524205e+03 -7.929836e+02  2.507864e+03 0.0 0.0 9.0
#pdf 21 21 2.018986e-01 7.325082e-01 5000.0 1.227266e-01 5.473714e-05
</event>
<event>
4 6 1.0 5000.0 7.905138e-03 7.739137e-02
21 -1 0 0 103 101  0.000000e+00  0.000000e+00  2.264166e+03  2.264166e+03 0.0 0.0 9.0
21 -1 0 0 101 102  0.000000e+00  0.000000e+00 -2.764556e+03  2.764556e+03 0.0 0.0 9.0
21  1 1 2 103 102  1.210191e+03 -2.131115e+03  2.555023e+02  2.464040e+03 0.0 0.0 9.0
22  1 1 2   0   0 -1.210191e+03  2.131115e+03 -7.558923e+02  2.564681e+03 0.0 0.0 9.0
#pdf 21 21 3.483332e-01 4.253162e-01 5000.0 1.992407e-02 7.595266e-03
</event>
<event>
4 6 1.0 5000.0 7.905138e-03 7.739137e-02
21 -1 0 0 101 102  0.000000e+00  0.000000e+00  2.367431e+03  2.367431e+03 0.0 0.0 9.0
21 -1 0 0 103 101  0.000000e+00  0.000000e+00 -2.632464e+03  2.632464e+03 0.0 0.0 9.0
22  1 1 2   0   0 -7.954842e+01 -9.628669e+02  2.172623e+03  2.377758e+03 0.0 0.0 9.0
21  1 1 2 103 102  7.954842e+01  9.628669e+02 -2.437655e+03  2.622137e+03 0.0 0.0 9.0
#pdf 21 21 3.642202e-01 4.049944e-01 5000.0 1.637796e-02 9.840165e-03
</event>
<event>
4 6 1.0 5000.0 7.905138e-03 7.739137e-02
21 -1 0 0 103 101  0.000000e+00  0.000000e+00  2.877583e+03  2.877583e+03 0.0 0.0 9.0
21 -1 0 0 101 102  0.000000e+00  0.000000e+00 -2.217023e+03  2.217023e+03 0.0 0.0 9.0
22  1 1 2   0   0 -1.288158e+03 -1.382504e+03 -1.359995e+03  2.328144e+03 0.0 0.0 9.0
21  1 1 2 103 102  1.288158e+03  1.382504e+03  2.020556e+03  2.766462e+03 0.0 0.0 9.0
#pdf 21 21 4.427051e-01 3.410805e-01 5000.0 6.071303e-03 2.177303e-02
</event>
<event>
4 6 1.0 5000.0 7.905138e-03 7.739137e-02
21 -1 0 0 103 101  0.000000e+00  0.000000e+00  3.985311e+03  3.985311e+03 0.0 0.0 9.0
21 -1 0 0 101 102  0.000000e+00  0.000000e+00 -1.516559e+03  1.516559e+03 0.0 0.0 9.0
21  1 1 2 103 102  1.406901e+03  9.767764e+02  3.207864e+03  3.636461e+03 0.0 0.0 9.0
22  1 1 2   0   0 -1.406901e+03 -9.767764e+02 -7.391125e+02  1.865409e+03 0.0 0.0 9.0
#pdf 21 21 6.131247e-01 2.333168e-01 5000.0 5.189475e-04 8.216961e-02
</event>
<event>
4 6 1.0 5000.0 7.905138e-03 7.739137e-02
21 -1 0 0 103 101  0.000000e+00  0.000000e+00  3.902612e+03  3.902612e+03 0.0 0.0 9.0
21 -1 0 0 101 102  0.000000e+00  0.000000e+00 -1.714217e+03  1.714217e+03 0.0 0.0 9.0
22  1 1 2   0   0 -2.486548e+03  6.910311e+02  1.280628e+03  2.881051e+03 0.0 0.0 9.0
21  1 1 2 103 102  2.486548e+03 -6.910311e+02  9.077661e+02  2.735779e+03 0.0 0.0 9.0
#pdf 21 21 6.004018e-01 2.637258e-01 5000.0 6.377801e-04 5.623532e-02
</event>
<event>
4 6 1.0 5000.0 7.905138e-03 7.739137e-02
21 -1 0 0 103 101  0.000000e+00  0.000000e+00  2.617192e+03  2.617192e+03 0.0 0.0 9.0
21 -1 0 0 101 102  0.000000e+00  0.000000e+00 -2.162651e+03  2.162651e+03 0.0 0.0 9.0
22  1 1 2   0   0  1.370478e+03  2.776222e+02 -1.706275e+03  2.206051e+03 0.0 0.0 9.0
21  1 1 2 103 102 -1.370478e+03 -2.776222e+02  2.160816e+03  2.573793e+03 0.0 0.0 9.0
#pdf 21 21 4.026449e-01 3.327156e-01 5000.0 1.013649e-02 2.412954e-02
</event>
<event>
4 6 1.0 5000.0 7.905138e-03 7.739137e-02
21 -1 0 0 101 102  0.000000e+00  0.000000e+00  2.497673e+03  2.497673e+03 0.0 0.0 9.0
21 -1 0 0 103 101  0.000000e+00  0.000000e+00 -2.354073e+03  2.354073e+03 0.0 0.0 9.0
21  1 1 2 103 102  1.315304e+03 -1.862847e+03  8.964695e+02  2.450281e+03 0.0 0.0 9.0
22  1 1 2   0   0 -1.315304e+03  1.862847e+03 -7.528696e+02  2.401465e+03 0.0 0.0 9.0
#pdf 21 21 3.842574e-01 3.621651e-01 5000.0 1.277569e-02 1.679722e-02
</event>
<event>
4 6 1.0 5000.0 7.905138e-03 7.739137e-02
21 -1 0 0 103 101  0.000000e+00  0.000000e+00  1.645790e+03  1.645790e+03 0.0 0.0 9.0
21 -1 0 0 101 102  0.000000e+00  0.000000e+00 -3.843838e+03  3.843838e+03 0.0 0.0 9.0
21  1 1 2 103 102  8.348127e+01  2.478180e+03 -6.388606e+02  2.560564e+03 0.0 0.0 9.0
22  1 1 2   0   0 -8.348127e+01 -2.478180e+03 -1.559188e+03  2.929064e+03 0.0 0.0 9.0
#pdf 21 21 2.531984e-01 5.913597e-01 5000.0 6.414449e-02 7.360525e-04
</event>
<event>
4 6 1.0 5000.0 7.905138e-03 7.739137e-02
21 -1 0 0 101 102  0.000000e+00  0.000000e+00  2.950342e+03  2.950342e+03 0.0 0.0 9.0
21 -1 0 0 103 101  0.000000e+00  0.000000e+00 -2.214147e+03  2.214147e+03 0.0 0.0 9.0
21  1 1 2 103 102  1.474178e+03 -5.415321e+02 -1.669149e+03  2.291837e+03 0.0 0.0 9.0
22  1 1 2   0   0 -1.474178e+03  5.415321e+02  2.405344e+03  2.872653e+03 0.0 0.0 9.0
#pdf 21 21 4.538988e-01 3.406381e-01 5000.0 5.243878e-03 2.189122e-02
</event>
<event>
4 6 1.0 5000.0 7.905138e-03 7.739137e-02
21 -1 0 0 103 101  0.000000e+00  0.000000e+00  2.530678e+03  2.530678e+03 0.0 0.0 9.0
21 -1 0 0 101 102  0.000000e+00  0.000000e+00 -2.460561e+03  2.460561e+03 0.0 0.0 9.0
22  1 1 2   0   0  1.796390e+03  1.284602e+01  1.767196e+03  2.519953e+03 0.0 0.0 9.0
21  1 1 2 103 102 -1.796390e+03 -1.284602e+01 -1.697079e+03  2.471287e+03 0.0 0.0 9.0
#pdf 21 21 3.893351e-01 3.785479e-01 5000.0 1.198349e-02 1.372134e-02
</event>
<event>
4 6 1.0 5000.0 7.905138e-03 7.739137e-02
21 -1 0 0 101 102  0.000000e+00  0.000000e+00  1.537149e+03  1.537149e+03 0.0 0.0 9.0
21 -1 0 0 103 101  0.000000e+00  0.000000e+00 -3.550631e+03  3.550631e+03 0.0 0.0 9.0
21  1 1 2 103 102  1.530373e+03 -7.062964e+02 -2.768253e+03  3.241006e+03 0.0 0.0 9.0
22  1 1 2   0   0 -1.530373e+03  7.062964e+02  7.547714e+02  1.846774e+03 0.0 0.0 9.0
#pdf 21 21 2.364845e-01 5.462509e-01 5000.0 7.900262e-02 1.461071e-03
</event>
<event>
4 6 1.0 5000.0 7.905138e-03 7.739137e-02
21 -1 0 0 101 102  0.000000e+00  0.000000e+00  1.331847e+03  1.331847e+03 0.0 0.0 9.0
21 -1 0 0 103 101  0.000000e+00  0.000000e+00 -4.685788e+03  4.685788e+03 0.0 0.0 9.0
21  1 1 2 103 102 -1.410827e+03  1.212908e+02 -4.155735e+03  4.390362e+03 0.0 0.0 9.0
22  1 1 2   0   0  1.410827e+03 -1.212908e+02  8.017937e+02  1.627273e+03 0.0 0.0 9.0
#pdf 21 21 2.048995e-01 7.208905e-01 5000.0 1.179903e-01 7.031984e-05
</event>
<event>
4 6 1.0 5000.0 7.905138e-03 7.739137e-02
21 -1 0 0 103 101  0.000000e+00  0.000000e+00  2.670080e+03  2.670080e+03 0.0 0.0 9.0
21 -1 0 0 101 102  0.000000e+00  0.000000e+00 -1.959682e+03  1.959682e+03 0.0 0.0 9.0
22  1 1 2   0   0 -1.263232e+03 -1.829047e+03  9.014267e+02  2.398695e+03 0.0 0.0 9.0
21  1 1 2 103 102  1.263232e+03  1.829047e+03 -1.910287e+02  2.231067e+03 0.0 0.0 9.0
#pdf 21 21 4.107816e-01 3.014896e-01 5000.0 9.142354e-03 3.537288e-02
</event>
<event>
4 6 1.0 5000.0 7.905138e-03 7.739137e-02
21 -1 0 0 101 102  0.000000e+00  0.000000e+00  2.190909e+03  2.190909e+03 0.0 0.0 9.0
21 -1 0 0 103 101  0.000000e+00  0.000000e+00 -3.260416e+03  3.260416e+03 0.0 0.0 9.0
21  1 1 2 103 102 -9.864376e+02 -5.690549e+02  1.931100e+03  2.241881e+03 0.0 0.0 9.0
22  1 1 2   0   0  9.864376e+02  5.690549e+02 -3.000608e+03  3.209444e+03 0.0 0.0 9.0
#pdf 21 21 3.370629e-01 5.016025e-01 5000.0 2.287277e-02 2.756456e-03
</event>
<event>
4 6 1.0 5000.0 7.905138e-03 7.739137e-02
21 -1 0 0 103 101  0.000000e+00  0.000000e+00  4.630016e+03  4.630016e+03 0.0 0.0 9.0
21 -1 0 0 101 102  0.000000e+00  0.000000e+00 -1.252105e+03  1.252105e+03 0.0 0.0 9.0
21  1 1 2 103 102 -2.844315e+02  1.429839e+03  4.029621e+03  4.285229e+03 0.0 0.0 9.0
22  1 1 2   0   0  2.844315e+02 -1.429839e+03 -6.517091e+02  1.596893e+03 0.0 0.0 9.0
#pdf 21 21 7.123102e-01 1.926315e-01 5000.0 8.426172e-05 1.385087e-01
</event>
<event>
4 6 1.0 5000.0 7.905138e-03 7.739137e-02
21 -1 0 0 103 101  0.000000e+00  0.000000e+00  1.674787e+03  1.674787e+03 0.0 0.0 9.0
21 -1 0 0 101 102  0.000000e+00  0.000000e+00 -3.687320e+03  3.687320e+03 0.0 0.0 9.0
22  1 1 2   0   0 -1.806479e+03 -1.609755e+03 -1.617330e+03  2.910401e+03 0.0 0.0 9.0
21  1 1 2 103 102  1.806479e+03  1.609755e+03 -3.952034e+02  2.451706e+03 0.0 0.0 9.0
#pdf 21 21 2.576595e-01 5.672800e-01 5000.0 6.066188e-02 1.068622e-03
</event>
<event>
4 6 1.0 5000.0 7.905138e-03 7.739137e-02
21 -1 0 0 103 101  0.000000e+00  0.000000e+00  4.035947e+03  4.035947e+03 0.0 0.0 9.0
21 -1 0 0 101 102  0.000000e+00  0.000000e+00 -1.522627e+03  1.522627e+03 0.0 0.0 9.0
21  1 1 2 103 102  1.103928e+03  1.113441e+03  3.409395e+03  3.752650e+03 0.0 0.0 9.0
22  1 1 2   0   0 -1.103928e+03 -1.113441e+03 -8.960752e+02  1.805923e+03 0.0 0.0 9.0
#pdf 21 21 6.209149e-01 2.342502e-01 5000.0 4.564349e-04 8.122296e-02
</event>
<event>
4 6 1.0 5000.0 7.905138e-03 7.739137e-02
21 -1 0 0 101 102  0.000000e+00  0.000000e+00  2.945907e+03  2.945907e+03 0.0 0.0 9.0
21 -1 0 0 103 101  0.000000e+00  0.000000e+00 -1.632697e+03  1.632697e+03 0.0 0.0 9.0
22  1 1 2   0   0 -1.204675e+02  1.659761e+03  2.147696e+03  2.716969e+03 0.0 0.0 9.0
21  1 1 2 103 102  1.204675e+02 -1.659761e+03 -8.344858e+02  1.861635e+03 0.0 0.0 9.0
#pdf 21 21 4.532165e-01 2.511841e-01 5000.0 5.291168e-03 6.576882e-02
</event>
<event>
4 6 1.0 5000.0 7.905138e-03 7.739137e-02
21 -1 0 0 101 102  0.000000e+00  0.000000e+00  2.063939e+03  2.063939e+03 0.0 0.0 9.0
21 -1 0 0 103 101  0.000000e+00  0.000000e+00 -2.139987e+03  2.139987e+03 0.0 0.0 9.0
21  1 1 2 103 102 -3.421966e+02 -1.964617e+03 -7.014457e+02  2.113964e+03 0.0 0.0 9.0
22  1 1 2   0   0  3.421966e+02  1.964617e+03  6.253970e+02  2.089962e+03 0.0 0.0 9.0
#pdf 21 21 3.175290e-01 3.292288e-01 5000.0 2.906046e-02 2.518289e-02
</event>
<event>
4 6 1.0 5000.0 7.905138e-03 7.739137e-02
21 -1 0 0 103 101  0.000000e+00  0.000000e+00  2.630395e+03  2.630395e+03 0.0 0.0 9.0
21 -1 0 0 101 102  0.000000e+00  0.000000e+00 -2.000368e+03  2.000368e+03 0.0 0.0 9.0
22  1 1 2   0   0 -4.325539e+02 -2.048629e+03 -6.306760e+02  2.186718e+03 0.0 0.0 9.0
21  1 1 2 103 102  4.325539e+02  2.048629e+03  1.260702e+03  2.444045e+03 0.0 0.0 9.0
#pdf 21 21 4.046761e-01 3.077490e-01 5000.0 9.879855e-03 3.279261e-02
</event>
<event>
4 6 1.0 5000.0 7.905138e-03 7.739137e-02
21 -1 0 0 101 102  0.000000e+00  0.000000e+00  2.419863e+03  2.419863e+03 0.0 0.0 9.0
21 -1 0 0 103 101  0.000000e+00  0.000000e+00 -2.451459e+03  2.451459e+03 0.0 0.0 9.0
22  1 1 2   0   0  1.205279e+03 -9.866855e+02  1.856660e+03  2.423516e+03 0.0 0.0 9.0
21  1 1 2 103 102 -1.205279e+03  9.866855e+02 -1.888255e+03  2.447806e+03 0.0 0.0 9.0
#pdf 21 21 3.722867e-01 3.771475e-01 5000.0 1.481423e-02 1.396112e-02
</event>
<event>
4 6 1.0 5000.0 7.905138e-03 7.739137e-02
21 -1 0 0 101 102  0.000000e+00  0.000000e+00  2.368882e+03  2.368882e+03 0.0 0.0 9.0
21 -1 0 0 103 101  0.000000e+00  0.000000e+00 -2.597871e+03  2.597871e+03 0.0 0.0 9.0
21  1 1 2 103 102 -2.283530e+03 -4.608135e+02 -9.681589e+02  2.522734e+03 0.0 0.0 9.0
22  1 1 2   0   0  2.283530e+03  4.608135e+02  7.391701e+02  2.444019e+03 0.0 0.0 9.0
#pdf 21 21 3.644434e-01 3.996725e-01 5000.0 1.633284e-02 1.052304e-02
</event>
<event>
4 6 1.0 5000.0 7.905138e-03 7.739137e-02
21 -1 0 0 101 102  0.000000e+00  0.000000e+00  2.852710e+03  2.852710e+03 0.0 0.0 9.0
21 -1 0 0 103 101  0.000000e+00  0.000000e+00 -2.193197e+03  2.193197e+03 0.0 0.0 9.0
22  1 1 2   0   0  4.449300e+02 -2.161487e+03 -8.579577e+02  2.367716e+03 0.0 0.0 9.0
21  1 1 2 103 102 -4.449300e+02  2.161487e+03  1.517471e+03  2.678191e+03 0.0 0.0 9.0
#pdf 21 21 4.388785e-01 3.374149e-01 5000.0 6.382682e-03 2.277394e-02
</event>
<event>
4 6 1.0 5000.0 7.905138e-03 7.739137e-02
21 -1 0 0 101 102  0.000000e+00  0.000000e+00  2.209059e+03  2.209059e+03 0.0 0.0 9.0
21 -1 0 0 103 101  0.000000e+00  0.000000e+00 -2.857960e+03  2.857960e+03 0.0 0.0 9.0
22  1 1 2   0   0  1.607399e+03 -3.391230e+01  1.622519e+03  2.284174e+03 0.0 0.0 9.0
21  1 1 2 103 102 -1.607399e+03  3.391230e+01 -2.271420e+03  2.782846e+03 0.0 0.0 9.0
#pdf 21 21 3.398553e-01 4.396862e-01 5000.0 2.210204e-02 6.316252e-03
</event>
<event>
4 6 1.0 5000.0 7.905138e-03 7.739137e-02
21 -1 0 0 101 102  0.000000e+00  0.000000e+00  3.401086e+03  3.401086e+03 0.0 0.0 9.0
21 -1 0 0 103 101  0.000000e+00  0.000000e+00 -1.839140e+03  1.839140e+03 0.0 0.0 9.0
21  1 1 2 103 102 -1.022722e+02 -1.458729e+03  2.906563e+03  3.253684e+03 0.0 0.0 9.0
22  1 1 2   0   0  1.022722e+02  1.458729e+03 -1.344618e+03  1.986542e+03 0.0 0.0 9.0
#pdf 21 21 5.232439e-01 2.829447e-01 5000.0 2.036152e-03 4.438498e-02
</event>
<event>
4 6 1.0 5000.0 7.905138e-03 7.739137e-02
21 -1 0 0 103 101  0.000000e+00  0.000000e+00  2.477555e+03  2.477555e+03 0.0 0.0 9.0
21 -1 0 0 101 102  0.000000e+00  0.000000e+00 -2.556156e+03  2.556156e+03 0.0 0.0 9.0
22  1 1 2   0   0  1.981038e+03  1.183122e+03  9.651769e+02  2.501170e+03 0.0 0.0 9.0
21  1 1 2 103 102 -1.981038e+03 -1.183122e+03 -1.043778e+03  2.532540e+03 0.0 0.0 9.0
#pdf 21 21 3.811623e-01 3.932548e-01 5000.0 1.328166e-02 1.140679e-02
</event>
<event>
4 6 1.0 5000.0 7.905138e-03 7.739137e-02
21 -1 0 0 101 102  0.000000e+00  0.000000e+00  2.462741e+03  2.462741e+03 0.0 0.0 9.0
21 -1 0 0 103 101  0.000000e+00  0.000000e+00 -2.500342e+03  2.500342e+03 0.0 0.0 9.0
22  1 1 2   0   0 -5.775093e+02 -3.927497e+02 -2.400030e+03  2.499582e+03 0.0 0.0 9.0
21  1 1 2 103 102  5.775093e+02  3.927497e+02  2.362428e+03  2.463501e+03 0.0 0.0 9.0
#pdf 21 21 3.788832e-01 3.846680e-01 5000.0 1.366434e-02 1.270982e-02
</event>
<event>
4 6 1.0 5000.0 7.905138e-03 7.739137e-02
21 -1 0 0 101 102  0.000000e+00  0.000000e+00  2.742732e+03  2.742732e+03 0.0 0.0 9.0
21 -1 0 0 103 101  0.000000e+00  0.000000e+00 -2.221646e+03  2.221646e+03 0.0 0.0 9.0
21  1 1 2 103 102 -5.970842e+02  7.756971e+02  2.539220e+03  2.721370e+03 0.0 0.0 9.0
22  1 1 2   0   0  5.970842e+02 -7.756971e+02 -2.018135e+03  2.243008e+03 0.0 0.0 9.0
#pdf 21 21 4.219587e-01 3.417917e-01 5000.0 7.929454e-03 2.158445e-02
</event>
<event>
4 6 1.0 5000.0 7.905138e-03 7.739137e-02
21 -1 0 0 103 101  0.000000e+00  0.000000e+00  3.404899e+03  3.404899e+03 0.0 0.0 9.0
21 -1 0 0 101 102  0.000000e+00  0.000000e+00 -1.763517e+03  1.763517e+03 0.0 0.0 9.0
22  1 1 2   0   0 -2.776762e+01  6.778502e+02  3.303886e+03  3.372820e+03 0.0 0.0 9.0
21  1 1 2 103 102  2.776762e+01 -6.778502e+02 -1.662503e+03  1.795597e+03 0.0 0.0 9.0
#pdf 21 21 5.238307e-01 2.713104e-01 5000.0 2.019346e-03 5.121356e-02
</event>
<event>
4 6 1.0 5000.0 7.905138e-03 7.739137e-02
21 -1 0 0 101 102  0.000000e+00  0.000000e+00  2.577162e+03  2.577162e+03 0.0 0.0 9.0
21 -1 0 0 103 101  0.000000e+00  0.000000e+00 -2.280877e+03  2.280877e+03 0.0 0.0 9.0
22  1 1 2   0   0 -2.392959e+03 -1.978887e+02  4.845917e+02  2.449539e+03 0.0 0.0 9.0
21  1 1 2 103 102  2.392959e+03  1.978887e+02 -1.883060e+02  2.408500e+03 0.0 0.0 9.0
#pdf 21 21 3.964865e-01 3.509041e-01 5000.0 1.095292e-02 1.930319e-02
</event>
<event>
4 6 1.0 5000.0 7.905138e-03 7.739137e-02
21 -1 0 0 101 102  0.000000e+00  0.000000e+00  3.924247e+03  3.924247e+03 0.0 0.0 9.0
21 -1 0 0 103 101  0.000000e+00  0.000000e+00 -2.216963e+03  2.216963e+03 0.0 0.0 9.0
22  1 1 2   0   0 -2.341595e+03  1.551712e+03  1.790017e+03  3.330921e+03 0.0 0.0 9.0
21  1 1 2 103 102  2.341595e+03 -1.551712e+03 -8.273170e+01  2.810289e+03 0.0 0.0 9.0
#pdf 21 21 6.037304e-01 3.410712e-01 5000.0 6.047407e-04 2.177551e-02
</event>
<event>
4 6 1.0 5000.0 7.905138e-03 7.739137e-02
21 -1 0 0 103 101  0.000000e+00  0.000000e+00  2.650856e+03  2.650856e+03 0.0 0.0 9.0
21 -1 0 0 101 102  0.000000e+00  0.000000e+00 -2.118593e+03  2.118593e+03 0.0 0.0 9.0
22  1 1 2   0   0 -7.885112e+02  1.839727e+03 -1.010599e+03  2.242244e+03 0.0 0.0 9.0
21  1 1 2 103 102  7.885112e+02 -1.839727e+03  1.542862e+03  2.527206e+03 0.0 0.0 9.0
#pdf 21 21 4.078240e-01 3.259374e-01 5000.0 9.493293e-03 2.621741e-02
</event>
<event>
4 6 1.0 5000.0 7.905138e-03 7.739137e-02
21 -1 0 0 101 102  0.000000e+00  0.000000e+00  2.065746e+03  2.065746e+03 0.0 0.0 9.0
21 -1 0 0 103 101  0.000000e+00  0.000000e+00 -2.937055e+03  2.937055e+03 0.0 0.0 9.0
21  1 1 2 103 102  1.545100e+03  1.352098e+02  1.507574e+03  2.162960e+03 0.0 0.0 9.0
22  1 1 2   0   0 -1.545100e+03 -1.352098e+02 -2.378883e+03  2.839842e+03 0.0 0.0 9.0
#pdf 21 21 3.178071e-01 4.518547e-01 5000.0 2.896134e-02 5.386304e-03
</event>
<event>
4 6 1.0 5000.0 7.905138e-03 7.739137e-02
21 -1 0 0 103 101  0.000000e+00  0.000000e+00  3.643194e+03  3.643194e+03 0.0 0.0 9.0
21 -1 0 0 101 102  0.000000e+00  0.000000e+00 -1.538235e+03  1.538235e+03 0.0 0.0 9.0
21  1 1 2 103 102 -1.690794e+03  1.012546e+03 -3.828049e+02  2.007629e+03 0.0 0.0 9.0
22  1 1 2   0   0  1.690794e+03 -1.012546e+03  2.487764e+03  3.173800e+03 0.0 0.0 9.0
#pdf 21 21 5.604914e-01 2.366515e-01 5000.0 1.184579e-03 7.883907e-02
</event>
<event>
4 6 1.0 5000.0 7.905138e-03 7.739137e-02
21 -1 0 0 101 102  0.000000e+00  0.000000e+00  1.506620e+03  1.506620e+03 0.0 0.0 9.0
21 -1 0 0 103 101  0.000000e+00  0.000000e+00 -3.996554e+03  3.996554e+03 0.0 0.0 9.0
21  1 1 2 103 102  3.245184e+02 -1.135750e+03  1.166846e+03  1.660352e+03 0.0 0.0 9.0
22  1 1 2   0   0 -3.245184e+02  1.135750e+03 -3.656780e+03  3.842822e+03 0.0 0.0 9.0
#pdf 21 21 2.317876e-01 6.148545e-01 5000.0 8.374783e-02 5.044302e-04
</event>
<event>
4 6 1.0 5000.0 7.905138e-03 7.739137e-02
21 -1 0 0 103 101  0.000000e+00  0.000000e+00  3.746497e+03  3.746497e+03 0.0 0.0 9.0
21 -1 0 0 101 102  0.000000e+00  0.000000e+00 -1.266323e+03  1.266323e+03 0.0 0.0 9.0
21  1 1 2 103 102 -2.969577e+02  1.787419e+03 -1.509070e+02  1.818193e+03 0.0 0.0 9.0
22  1 1 2   0   0  2.969577e+02 -1.787419e+03  2.631081e+03  3.194627e+03 0.0 0.0 9.0
#pdf 21 21 5.763841e-01 1.948189e-01 5000.0 9.290568e-04 1.345799e-01
</event>
<event>
4 6 1.0 5000.0 7.905138e-03 7.739137e-02
21 -1 0 0 103 101  0.000000e+00  0.000000e+00  1.808271e+03  1.808271e+03 0.0 0.0 9.0
21 -1 0 0 101 102  0.000000e+00  0.000000e+00 -3.343346e+03  3.343346e+03 0.0 0.0 9.0
21  1 1 2 103 102 -9.596098e+02  1.550687e+03  9.602532e+02  2.060962e+03 0.0 0.0 9.0
22  1 1 2   0   0  9.596098e+02 -1.550687e+03 -2.495328e+03  3.090654e+03 0.0 0.0 9.0
#pdf 21 21 2.781955e-01 5.143609e-01 5000.0 4.705866e-02 2.308430e-03
</event>
<event>
4 6 1.0 5000.0 7.905138e-03 7.739137e-02
21 -1 0 0 101 102  0.000000e+00  0.000000e+00  2.004051e+03  2.004051e+03 0.0 0.0 9.0
21 -1 0 0 103 101  0.000000e+00  0.000000e+00 -3.135390e+03  3.135390e+03 0.0 0.0 9.0
22  1 1 2   0   0 -4.568898e+02 -1.138080e+03 -2.806852e+03  3.063069e+03 0.0 0.0 9.0
21  1 1 2 103 102  4.568898e+02  1.138080e+03  1.675513e+03  2.076372e+03 0.0 0.0 9.0
#pdf 21 21 3.083155e-01 4.823677e-01 5000.0 3.256509e-02 3.585266e-03
</event>
<event>
4 6 1.0 5000.0 7.905138e-03 7.739137e-02
21 -1 0 0 103 101  0.000000e+00  0.000000e+00  2.103713e+03  2.103713e+03 0.0 0.0 9.0
21 -1 0 0 101 102  0.000000e+00  0.000000e+00 -2.897438e+03  2.897438e+03 0.0 0.0 9.0
21  1 1 2 103 102  1.118040e+03 -1.592084e+02 -2.620500e+03  2.853486e+03 0.0 0.0 9.0
22  1 1 2   0   0 -1.118040e+03  1.592084e+02  1.826774e+03  2.147665e+03 0.0 0.0 9.0
#pdf 21 21 3.236481e-01 4.457597e-01 5000.0 2.696172e-02 5.828014e-03
</event>
<event>
4 6 1.0 5000.0 7.905138e-03 7.739137e-02
21 -1 0 0 101 102  0.000000e+00  0.000000e+00  2.204024e+03  2.204024e+03 0.0 0.0 9.0
21 -1 0 0 103 101  0.000000e+00  0.000000e+00 -2.364850e+03  2.364850e+03 0.0 0.0 9.0
22  1 1 2   0   0 -1.783441e+03 -3.415893e+02 -1.465049e+03  2.333177e+03 0.0 0.0 9.0
21  1 1 2 103 102  1.783441e+03  3.415893e+02  1.304223e+03  2.235698e+03 0.0 0.0 9.0
#pdf 21 21 3.390807e-01 3.638231e-01 5000.0 2.231286e-02 1.645840e-02
</event>
<event>
4 6 1.0 5000.0 7.905138e-03 7.739137e-02
21 -1 0 0 101 102  0.000000e+00  0.000000e+00  1.997971e+03  1.997971e+03 0.0 0.0 9.0
21 -1 0 0 103 101  0.000000e+00  0.000000e+00 -2.985070e+03  2.985070e+03 0.0 0.0 9.0
21  1 1 2 103 102  5.274508e+01 -2.350743e+03  1.795702e+02  2.358181e+03 0.0 0.0 9.0
22  1 1 2   0   0 -5.274508e+01  2.350743e+03 -1.166669e+03  2.624860e+03 0.0 0.0 9.0
#pdf 21 21 3.073802e-01 4.592416e-01 5000.0 3.294135e-02 4.884634e-03
</event>
<event>
4 6 1.0 5000.0 7.905138e-03 7.739137e-02
21 -1 0 0 103 101  0.000000e+00  0.000000e+00  1.889961e+03  1.889961e+03 0.0 0.0 9.0
21 -1 0 0 101 102  0.000000e+00  0.000000e+00 -2.942153e+03  2.942153e+03 0.0 0.0 9.0
21  1 1 2 103 102 -8.774395e+02 -1.886547e+03  6.109603e+02  2.168463e+03 0.0 0.0 9.0
22  1 1 2   0   0  8.774395e+02  1.886547e+03 -1.663153e+03  2.663651e+03 0.0 0.0 9.0
#pdf 21 21 2.907632e-01 4.526390e-01 5000.0 4.036444e-02 5.331396e-03
</event>
<event>
4 6 1.0 5000.0 7.905138e-03 7.739137e-02
21 -1 0 0 101 102  0.000000e+00  0.000000e+00  2.316506e+03  2.316506e+03 0.0 0.0 9.0
21 -1 0 0 103 101  0.000000e+00  0.000000e+00 -2.514174e+03  2.514174e+03 0.0 0.0 9.0
22  1 1 2   0   0 -2.009866e+03 -6.707345e+02 -1.255075e+03  2.462653e+03 0.0 0.0 9.0
21  1 1 2 103 102  2.009866e+03  6.707345e+02  1.057406e+03  2.368028e+03 0.0 0.0 9.0
#pdf 21 21 3.563855e-01 3.867961e-01 5000.0 1.803171e-02 1.237345e-02
</event>
<event>
4 6 1.0 5000.0 7.905138e-03 7.739137e-02
21 -1 0 0 103 101  0.000000e+00  0.000000e+00  2.400531e+03  2.400531e+03 0.0 0.0 9.0
21 -1 0 0 101 102  0.000000e+00  0.000000e+00 -2.361475e+03  2.361475e+03 0.0 0.0 9.0
21  1 1 2 103 102  6.359517e+02  1.062877e+03 -2.013924e+03  2.364325e+03 0.0 0.0 9.0
22  1 1 2   0   0 -6.359517e+02 -1.062877e+03  2.052980e+03  2.397680e+03 0.0 0.0 9.0
#pdf 21 21 3.693124e-01 3.633038e-01 5000.0 1.536682e-02 1.656398e-02
</event>
<event>
4 6 1.0 5000.0 7.905138e-03 7.739137e-02
21 -1 0 0 103 101  0.000000e+00  0.000000e+00  2.143321e+03  2.143321e+03 0.0 0.0 9.0
21 -1 0 0 101 102  0.000000e+00  0.000000e+00 -2.432618e+03  2.432618e+03 0.0 0.0 9.0
22  1 1 2   0   0  1.781265e+03 -6.559466e+02  1.127033e+03  2.207572e+03 0.0 0.0 9.0
21  1 1 2 103 102 -1.781265e+03  6.559466e+02 -1.416330e+03  2.368367e+03 0.0 0.0 9.0
#pdf 21 21 3.297417e-01 3.742489e-01 5000.0 2.502527e-02 1.446617e-02
</event>
<event>
4 6 1.0 5000.0 7.905138e-03 7.739137e-02
21 -1 0 0 103 101  0.000000e+00  0.000000e+00  2.837013e+03  2.837013e+03 0.0 0.0 9.0
21 -1 0 0 101 102  0.000000e+00  0.000000e+00 -2.176471e+03  2.176471e+03 0.0 0.0 9.0
21  1 1 2 103 102  2.561419e+02  2.440934e+03 -6.161632e+01  2.455110e+03 0.0 0.0 9.0
22  1 1 2   0   0 -2.561419e+02 -2.440934e+03  7.221591e+02  2.558375e+03 0.0 0.0 9.0
#pdf 21 21 4.364636e-01 3.348417e-01 5000.0 6.584133e-03 2.350726e-02
</event>
<event>
4 6 1.0 5000.0 7.905138e-03 7.739137e-02
21 -1 0 0 101 102  0.000000e+00  0.000000e+00  2.486217e+03  2.486217e+03 0.0 0.0 9.0
21 -1 0 0 103 101  0.000000e+00  0.000000e+00 -2.404709e+03  2.404709e+03 0.0 0.0 9.0
21  1 1 2 103 102 -3.925450e+01  1.071256e+03 -2.157164e+03  2.408835e+03 0.0 0.0 9.0
22  1 1 2   0   0  3.925450e+01 -1.071256e+03  2.238671e+03  2.482091e+03 0.0 0.0 9.0
#pdf 21 21 3.824949e-01 3.699553e-01 5000.0 1.306180e-02 1.524418e-02
</event>
<event>
4 6 1.0 5000.0 7.905138e-03 7.739137e-02
21 -1 0 0 103 101  0.000000e+00  0.000000e+00  2.828561e+03  2.828561e+03 0.0 0.0 9.0
21 -1 0 0 101 102  0.000000e+00  0.000000e+00 -2.580551e+03  2.580551e+03 0.0 0.0 9.0
22  1 1 2   0   0 -9.586246e+02  1.389230e+03  2.235805e+03  2.801383e+03 0.0 0.0 9.0
21  1 1 2 103 102  9.586246e+02 -1.389230e+03 -1.987795e+03  2.607729e+03 0.0 0.0 9.0
#pdf 21 21 4.351632e-01 3.970078e-01 5000.0 6.694637e-03 1.088143e-02
</event>
<event>
4 6 1.0 5000.0 7.905138e-03 7.739137e-02
21 -1 0 0 103 101  0.000000e+00  0.000000e+00  2.020871e+03  2.020871e+03 0.0 0.0 9.0
21 -1 0 0 101 102  0.000000e+00  0.000000e+00 -3.076192e+03  3.076192e+03 0.0 0.0 9.0
21  1 1 2 103 102 -1.036836e+02  1.539237e+03  1.474443e+03  2.134006e+03 0.0 0.0 9.0
22  1 1 2   0   0  1.036836e+02 -1.539237e+03 -2.529764e+03  2.963057e+03 0.0 0.0 9.0
#pdf 21 21 3.109033e-01 4.732603e-01 5000.0 3.154160e-02 4.054260e-03
</event>
<event>
4 6 1.0 5000.0 7.905138e-03 7.739137e-02
21 -1 0 0 103 101  0.000000e+00  0.000000e+00  2.036302e+03  2.036302e+03 0.0 0.0 9.0
21 -1 0 0 101 102  0.000000e+00  0.000000e+00 -3.052001e+03  3.052001e+03 0.0 0.0 9.0
22  1 1 2   0   0  2.899990e+02 -2.357602e+03 -1.279967e+03  2.698278e+03 0.0 0.0 9.0
21  1 1 2 103 102 -2.899990e+02  2.357602e+03  2.642678e+02  2.390026e+03 0.0 0.0 9.0
#pdf 21 21 3.132772e-01 4.695387e-01 5000.0 3.062781e-02 4.260898e-03
</event>
<event>
4 6 1.0 5000.0 7.905138e-03 7.739137e-02
21 -1 0 0 103 101  0.000000e+00  0.000000e+00  2.180900e+03  2.180900e+03 0.0 0.0 9.0
21 -1 0 0 101 102  0.000000e+00  0.000000e+00 -3.138152e+03  3.138152e+03 0.0 0.0 9.0
21  1 1 2 103 102  7.004114e+02 -8.573649e+01 -3.039580e+03  3.120412e+03 0.0 0.0 9.0
22  1 1 2   0   0 -7.004114e+02  8.573649e+01  2.082328e+03  2.198640e+03 0.0 0.0 9.0
#pdf 21 21 3.355231e-01 4.827926e-01 5000.0 2.331085e-02 3.564646e-03
</event>
<event>
4 6 1.0 5000.0 7.905138e-03 7.739137e-02
21 -1 0 0 103 101  0.000000e+00  0.000000e+00  1.348375e+03  1.348375e+03 0.0 0.0 9.0
21 -1 0 0 101 102  0.000000e+00  0.000000e+00 -4.420069e+03  4.420069e+03 0.0 0.0 9.0
21  1 1 2 103 102  1.047568e+03  2.086834e+03 -2.377601e+03  3.332456e+03 0.0 0.0 9.0
22  1 1 2   0   0 -1.047568e+03 -2.086834e+03 -6.940938e+02  2.435989e+03 0.0 0.0 9.0
#pdf 21 21 2.074423e-01 6.800107e-01 5000.0 1.141672e-01 1.596888e-04
</event>
<event>
4 6 1.0 5000.0 7.905138e-03 7.739137e-02
21 -1 0 0 101 102  0.000000e+00  0.000000e+00  2.936304e+03  2.936304e+03 0.0 0.0 9.0
21 -1 0 0 103 101  0.000000e+00  0.000000e+00 -1.854647e+03  1.854647e+03 0.0 0.0 9.0
22  1 1 2   0   0  1.957706e+03  1.121707e+03  1.152411e+03  2.533553e+03 0.0 0.0 9.0
21  1 1 2 103 102 -1.957706e+03 -1.121707e+03 -7.075353e+01  2.257398e+03 0.0 0.0 9.0
#pdf 21 21 4.517391e-01 2.853303e-01 5000.0 5.394417e-03 4.311074e-02
</event>
<event>
4 6 1.0 5000.0 7.905138e-03 7.739137e-02
21 -1 0 0 101 102  0.000000e+00  0.000000e+00  2.737531e+03  2.737531e+03 0.0 0.0 9.0
21 -1 0 0 103 101  0.000000e+00  0.000000e+00 -2.024288e+03  2.024288e+03 0.0 0.0 9.0
21  1 1 2 103 102 -1.877000e+03  7.021202e+02 -8.925621e+02  2.193802e+03 0.0 0.0 9.0
22  1 1 2   0   0  1.877000e+03 -7.021202e+02  1.605805e+03  2.568017e+03 0.0 0.0 9.0
#pdf 21 21 4.211586e-01 3.114289e-01 5000.0 8.010953e-03 3.133707e-02
</event>
<event>
4 6 1.0 5000.0 7.905138e-03 7.739137e-02
21 -1 0 0 103 101  0.000000e+00  0.000000e+00  2.153516e+03  2.153516e+03 0.0 0.0 9.0
21 -1 0 0 101 102  0.000000e+00  0.000000e+00 -2.348686e+03  2.348686e+03 0.0 0.0 9.0
22  1 1 2   0   0  1.228229e+02  2.230361e+03 -3.592460e+02  2.262444e+03 0.0 0.0 9.0
21  1 1 2 103 102 -1.228229e+02 -2.230361e+03  1.640758e+02  2.239758e+03 0.0 0.0 9.0
#pdf 21 21 3.313102e-01 3.613364e-01 5000.0 2.454906e-02 1.696863e-02
</event>
<event>
4 6 1.0 5000.0 7.905138e-03 7.739137e-02
21 -1 0 0 101 102  0.000000e+00  0.000000e+00  2.361033e+03  2.361033e+03 0.0 0.0 9.0
21 -1 0 0 103 101  0.000000e+00  0.000000e+00 -2.515110e+03  2.515110e+03 0.0 0.0 9.0
22  1 1 2   0   0 -2.381825e+03  8.008459e+01  4.318909e+02  2.421990e+03 0.0 0.0 9.0
21  1 1 2 103 102  2.381825e+03 -8.008459e+01 -5.859685e+02  2.454153e+03 0.0 0.0 9.0
#pdf 21 21 3.632358e-01 3.869400e-01 5000.0 1.657785e-02 1.235100e-02
</event>
<event>
4 6 1.0 5000.0 7.905138e-03 7.739137e-02
21 -1 0 0 101 102  0.000000e+00  0.000000e+00  4.035038e+03  4.035038e+03 0.0 0.0 9.0
21 -1 0 0 103 101  0.000000e+00  0.000000e+00 -1.622436e+03  1.622436e+03 0.0 0.0 9.0
22  1 1 2   0   0  1.767160e+03 -1.572195e+03  1.276302e+02  2.368743e+03 0.0 0.0 9.0
21  1 1 2 103 102 -1.767160e+03  1.572195e+03  2.284973e+03  3.288731e+03 0.0 0.0 9.0
#pdf 21 21 6.207752e-01 2.496055e-01 5000.0 4.574953e-04 6.706095e-02
</event>
<event>
4 6 1.0 5000.0 7.905138e-03 7.739137e-02
21 -1 0 0 101 102  0.000000e+00  0.000000e+00  2.030349e+03  2.030349e+03 0.0 0.0 9.0
21 -1 0 0 103 101  0.000000e+00  0.000000e+00 -2.889833e+03  2.889833e+03 0.0 0.0 9.0
22  1 1 2   0   0  1.829886e+03  1.644573e+02  1.173466e+03  2.180034e+03 0.0 0.0 9.0
21  1 1 2 103 102 -1.829886e+03 -1.644573e+02 -2.032949e+03  2.740148e+03 0.0 0.0 9.0
#pdf 21 21 3.123614e-01 4.445897e-01 5000.0 3.097726e-02 5.920479e-03
</event>
<event>
4 6 1.0 5000.0 7.905138e-03 7.739137e-02
21 -1 0 0 101 102  0.000000e+00  0.000000e+00  2.277309e+03  2.277309e+03 0.0 0.0 9.0
21 -1 0 0 103 101  0.000000e+00  0.000000e+00 -2.388928e+03  2.388928e+03 0.0 0.0 9.0
21  1 1 2 103 102 -9.394224e+02 -1.767905e+03  1.141331e+03  2.304482e+03 0.0 0.0 9.0
22  1 1 2   0   0  9.394224e+02  1.767905e+03 -1.252950e+03  2.361755e+03 0.0 0.0 9.0
#pdf 21 21 3.503552e-01 3.675273e-01 5000.0 1.943444e-02 1.571563e-02
</event>
<event>
4 6 1.0 5000.0 7.905138e-03 7.739137e-02
21 -1 0 0 101 102  0.000000e+00  0.000000e+00  4.055948e+03  4.055948e+03 0.0 0.0 9.0
21 -1 0 0 103 101  0.000000e+00  0.000000e+00 -1.411394e+03  1.411394e+03 0.0 0.0 9.0
22  1 1 2   0   0 -1.185342e+03 -2.054306e+03  1.682377e+03  2.907852e+03 0.0 0.0 9.0
21  1 1 2 103 102  1.185342e+03  2.054306e+03  9.621770e+02  2.559491e+03 0.0 0.0 9.0
#pdf 21 21 6.239921e-01 2.171375e-01 5000.0 4.335804e-04 1.009091e-01
</event>
<event>
4 6 1.0 5000.0 7.905138e-03 7.739137e-02
21 -1 0 0 103 101  0.000000e+00  0.000000e+00  2.050942e+03  2.050942e+03 0.0 0.0 9.0
21 -1 0 0 101 102  0.000000e+00  0.000000e+00 -2.515465e+03  2.515465e+03 0.0 0.0 9.0
22  1 1 2   0   0 -1.526073e+03 -1.078712e+03  1.065421e+03  2.151195e+03 0.0 0.0 9.0
21  1 1 2 103 102  1.526073e+03  1.078712e+03 -1.529945e+03  2.415212e+03 0.0 0.0 9.0
#pdf 21 21 3.155295e-01 3.869946e-01 5000.0 2.978574e-02 1.234249e-02
</event>
<event>
4 6 1.0 5000.0 7.905138e-03 7.739137e-02
21 -1 0 0 101 102  0.000000e+00  0.000000e+00  2.208407e+03  2.208407e+03 0.0 0.0 9.0
21 -1 0 0 103 101  0.000000e+00  0.000000e+00 -2.509277e+03  2.509277e+03 0.0 0.0 9.0
21  1 1 2 103 102  4.022794e+02 -2.169841e+03  6.706676e+02  2.306476e+03 0.0 0.0 9.0
22  1 1 2   0   0 -4.022794e+02  2.169841e+03 -9.715379e+02  2.411208e+03 0.0 0.0 9.0
#pdf 21 21 3.397549e-01 3.860426e-01 5000.0 2.212923e-02 1.249157e-02
</event>
<event>
4 6 1.0 5000.0 7.905138e-03 7.739137e-02
21 -1 0 0 103 101  0.000000e+00  0.000000e+00  1.660192e+03  1.660192e+03 0.0 0.0 9.0
21 -1 0 0 101 102  0.000000e+00  0.000000e+00 -2.794086e+03  2.794086e+03 0.0 0.0 9.0
22  1 1 2   0   0 -1.049345e+03  1.860037e+03 -2.784126e+02  2.153689e+03 0.0 0.0 9.0
21  1 1 2 103 102  1.049345e+03 -1.860037e+03 -8.554814e+02  2.300590e+03 0.0 0.0 9.0
#pdf 21 21 2.554142e-01 4.298594e-01 5000.0 6.239338e-02 7.163906e-03
</event>
<event>
4 6 1.0 5000.0 7.905138e-03 7.739137e-02
21 -1 0 0 103 101  0.000000e+00  0.000000e+00  2.363557e+03  2.363557e+03 0.0 0.0 9.0
21 -1 0 0 101 102  0.000000e+00  0.000000e+00 -3.371725e+03  3.371725e+03 0.0 0.0 9.0
22  1 1 2   0   0 -2.328001e+03  1.515533e+03 -1.014861e+03  2.957427e+03 0.0 0.0 9.0
21  1 1 2 103 102  2.328001e+03 -1.515533e+03  6.693206e+00  2.777855e+03 0.0 0.0 9.0
#pdf 21 21 3.636241e-01 5.187269e-01 5000.0 1.649880e-02 2.170394e-03
</event>
<event>
4 6 1.0 5000.0 7.905138e-03 7.739137e-02
21 -1 0 0 103 101  0.000000e+00  0.000000e+00  3.367846e+03  3.367846e+03 0.0 0.0 9.0
21 -1 0 0 101 102  0.000000e+00  0.000000e+00 -1.785097e+03  1.785097e+03 0.0 0.0 9.0
22  1 1 2   0   0 -7.135966e+02  6.223531e+02 -1.585234e+03  1.846486e+03 0.0 0.0 9.0
21  1 1 2 103 102  7.135966e+02 -6.223531e+02  3.167983e+03  3.306457e+03 0.0 0.0 9.0
#pdf 21 21 5.181302e-01 2.746303e-01 5000.0 2.188823e-03 4.916651e-02
</event>
<event>
4 6 1.0 5000.0 7.905138e-03 7.739137e-02
21 -1 0 0 103 101  0.000000e+00  0.000000e+00  2.996535e+03  2.996535e+03 0.0 0.0 9.0
21 -1 0 0 101 102  0.000000e+00  0.000000e+00 -2.014224e+03  2.014224e+03 0.0 0.0 9.0
22  1 1 2   0   0 -2.225123e+03 -7.537782e+02  1.223940e+03  2.649035e+03 0.0 0.0 9.0
21  1 1 2 103 102  2.225123e+03  7.537782e+02 -2.416291e+02  2.361724e+03 0.0 0.0 9.0
#pdf 21 21 4.610054e-01 3.098806e-01 5000.0 4.771216e-03 3.194287e-02
</event>
<event>
4 6 1.0 5000.0 7.905138e-03 7.739137e-02
21 -1 0 0 101 102  0.000000e+00  0.000000e+00  3.414515e+03  3.414515e+03 0.0 0.0 9.0
21 -1 0 0 103 101  0.000000e+00  0.000000e+00 -1.915870e+03  1.915870e+03 0.0 0.0 9.0
22  1 1 2   0   0  1.515357e+03 -1.868310e+03 -1.560343e+02  2.410650e+03 0.0 0.0 9.0
21  1 1 2 103 102 -1.515357e+03  1.868310e+03  1.654680e+03  2.919735e+03 0.0 0.0 9.0
#pdf 21 21 5.253100e-01 2.947492e-01 5000.0 1.977561e-03 3.845131e-02
</event>
<event>
4 6 1.0 5000.0 7.905138e-03 7.739137e-02
21 -1 0 0 103 101  0.000000e+00  0.000000e+00  1.932926e+03  1.932926e+03 0.0 0.0 9.0
21 -1 0 0 101 102  0.000000e+00  0.000000e+00 -3.097355e+03  3.097355e+03 0.0 0.0 9.0
21  1 1 2 103 102 -1.662088e+03  5.007353e+02  1.190369e+03  2.104816e+03 0.0 0.0 9.0
22  1 1 2   0   0  1.662088e+03 -5.007353e+02 -2.354798e+03  2.925465e+03 0.0 0.0 9.0
#pdf 21 21 2.973733e-01 4.765162e-01 5000.0 3.722316e-02 3.880770e-03
</event>
<event>
4 6 1.0 5000.0 7.905138e-03 7.739137e-02
21 -1 0 0 101 102  0.000000e+00  0.000000e+00  2.179124e+03  2.179124e+03 0.0 0.0 9.0
21 -1 0 0 103 101  0.000000e+00  0.000000e+00 -2.385983e+03  2.385983e+03 0.0 0.0 9.0
21  1 1 2 103 102  8.194400e+01 -8.458208e+02 -2.221551e+03  2.378532e+03 0.0 0.0 9.0
22  1 1 2   0   0 -8.194400e+01  8.458208e+02  2.014691e+03  2.186575e+03 0.0 0.0 9.0
#pdf 21 21 3.352498e-01 3.670743e-01 5000.0 2.338943e-02 1.580575e-02
</event>
<event>
4 6 1.0 5000.0 7.905138e-03 7.739137e-02
21 -1 0 0 103 101  0.000000e+00  0.000000e+00  1.866798e+03  1.866798e+03 0.0 0.0 9.0
21 -1 0 0 101 102  0.000000e+00  0.000000e+00 -2.649370e+03  2.649370e+03 0.0 0.0 9.0
22  1 1 2   0   0  1.697367e+03  5.318896e+02  9.640869e+02  2.023222e+03 0.0 0.0 9.0
21  1 1 2 103 102 -1.697367e+03 -5.318896e+02 -1.746660e+03  2.492947e+03 0.0 0.0 9.0
#pdf 21 21 2.871996e-01 4.075955e-01 5000.0 4.214375e-02 9.520924e-03
</event>
<event>
4 6 1.0 5000.0 7.905138e-03 7.739137e-02
21 -1 0 0 103 101  0.000000e+00  0.000000e+00  3.199218e+03  3.199218e+03 0.0 0.0 9.0
21 -1 0 0 101 102  0.000000e+00  0.000000e+00 -2.071219e+03  2.071219e+03 0.0 0.0 9.0
21  1 1 2 103 102  2.049748e+02 -2.471653e+03  1.269699e+03  2.786255e+03 0.0 0.0 9.0
22  1 1 2   0   0 -2.049748e+02  2.471653e+03 -1.416995e+02  2.484182e+03 0.0 0.0 9.0
#pdf 21 21 4.921874e-01 3.186490e-01 5000.0 3.137633e-03 2.866368e-02
</event>
<event>
4 6 1.0 5000.0 7.905138e-03 7.739137e-02
21 -1 0 0 103 101  0.000000e+00  0.000000e+00  4.288977e+03  4.288977e+03 0.0 0.0 9.0
21 -1 0 0 101 102  0.000000e+00  0.000000e+00 -1.492302e+03  1.492302e+03 0.0 0.0 9.0
22  1 1 2   0   0 -1.257640e+03 -3.554023e+02  3.873422e+03  4.087954e+03 0.0 0.0 9.0
21  1 1 2 103 102  1.257640e+03  3.554023e+02 -1.076747e+03  1.693326e+03 0.0 0.0 9.0
#pdf 21 21 6.598427e-01 2.295850e-01 5000.0 2.325563e-04 8.608763e-02
</event>
<event>
4 6 1.0 5000.0 7.905138e-03 7.739137e-02
21 -1 0 0 101 102  0.000000e+00  0.000000e+00  2.553460e+03  2.553460e+03 0.0 0.0 9.0
21 -1 0 0 103 101  0.000000e+00  0.000000e+00 -1.996699e+03  1.996699e+03 0.0 0.0 9.0
22  1 1 2   0   0 -1.890199e+03  4.007966e+02  1.455557e+03  2.419119e+03 0.0 0.0 9.0
21  1 1 2 103 102  1.890199e+03 -4.007966e+02 -8.987960e+02  2.131039e+03 0.0 0.0 9.0
#pdf 21 21 3.928399e-01 3.071844e-01 5000.0 1.146641e-02 3.302050e-02
</event>
<event>
4 6 1.0 5000.0 7.905138e-03 7.739137e-02
21 -1 0 0 103 101  0.000000e+00  0.000000e+00  2.308807e+03  2.308807e+03 0.0 0.0 9.0
21 -1 0 0 101 102  0.000000e+00  0.000000e+00 -2.726148e+03  2.726148e+03 0.0 0.0 9.0
22  1 1 2   0   0 -1.043559e+03 -2.930039e+02  2.061726e+03  2.329287e+03 0.0 0.0 9.0
21  1 1 2 103 102  1.043559e+03  2.930039e+02 -2.479067e+03  2.705668e+03 0.0 0.0 9.0
#pdf 21 21 3.552011e-01 4.194074e-01 5000.0 1.829850e-02 8.191971e-03
</event>
<event>
4 6 1.0 5000.0 7.905138e-03 7.739137e-02
21 -1 0 0 101 102  0.000000e+00  0.000000e+00  2.414128e+03  2.414128e+03 0.0 0.0 9.0
21 -1 0 0 103 101  0.000000e+00  0.000000e+00 -1.893798e+03  1.893798e+03 0.0 0.0 9.0
21  1 1 2 103 102  1.028912e+03 -1.865771e+03  4.406751e+02  2.175766e+03 0.0 0.0 9.0
22  1 1 2   0   0 -1.028912e+03  1.865771e+03  7.965522e+01  2.132160e+03 0.0 0.0 9.0
#pdf 21 21 3.714044e-01 2.913535e-01 5000.0 1.497409e-02 4.007660e-02
</event>
<event>
4 6 1.0 5000.0 7.905138e-03 7.739137e-02
21 -1 0 0 103 101  0.000000e+00  0.000000e+00  1.735554e+03  1.735554e+03 0.0 0.0 9.0
21 -1 0 0 101 102  0.000000e+00  0.000000e+00 -3.544964e+03  3.544964e+03 0.0 0.0 9.0
21  1 1 2 103 102 -1.273273e+03 -2.745595e+02  1.342216e+03  1.870335e+03 0.0 0.0 9.0
22  1 1 2   0   0  1.273273e+03  2.745595e+02 -3.151626e+03  3.410184e+03 0.0 0.0 9.0
#pdf 21 21 2.670083e-01 5.453791e-01 5000.0 5.399914e-02 1.479866e-03
</event>
<event>
4 6 1.0 5000.0 7.905138e-03 7.739137e-02
21 -1 0 0 101 102  0.000000e+00  0.000000e+00  1.562658e+03  1.562658e+03 0.0 0.0 9.0
21 -1 0 0 103 101  0.000000e+00  0.000000e+00 -4.149762e+03  4.149762e+03 0.0 0.0 9.0
22  1 1 2   0   0  9.662358e+02 -3.080316e+02 -3.913485e+03  4.042754e+03 0.0 0.0 9.0
21  1 1 2 103 102 -9.662358e+02  3.080316e+02  1.326382e+03  1.669666e+03 0.0 0.0 9.0
#pdf 21 21 2.404089e-01 6.384249e-01 5000.0 7.523034e-02 3.391427e-04
</event>
<event>
4 6 1.0 5000.0 7.905138e-03 7.739137e-02
21 -1 0 0 103 101  0.000000e+00  0.000000e+00  2.041461e+03  2.041461e+03 0.0 0.0 9.0
21 -1 0 0 101 102  0.000000e+00  0.000000e+00 -2.814234e+03  2.814234e+03 0.0 0.0 9.0
21  1 1 2 103 102  1.351999e+02  1.401703e+03 -2.351039e+03  2.740517e+03 0.0 0.0 9.0
22  1 1 2   0   0 -1.351999e+02 -1.401703e+03  1.578267e+03  2.115178e+03 0.0 0.0 9.0
#pdf 21 21 3.140710e-01 4.329590e-01 5000.0 3.032816e-02 6.885729e-03
</event>
<event>
4 6 1.0 5000.0 7.905138e-03 7.739137e-02
21 -1 0 0 103 101  0.000000e+00  0.000000e+00  1.549960e+03  1.549960e+03 0.0 0.0 9.0
21 -1 0 0 101 102  0.000000e+00  0.000000e+00 -3.985097e+03  3.985097e+03 0.0 0.0 9.0
22  1 1 2   0   0 -2.299104e+03  9.074220e+02 -9.283694e+02  2.640296e+03 0.0 0.0 9.0
21  1 1 2 103 102  2.299104e+03 -9.074220e+02 -1.506767e+03  2.894761e+03 0.0 0.0 9.0
#pdf 21 21 2.384554e-01 6.130918e-01 5000.0 7.709035e-02 5.192274e-04
</event>
<event>
4 6 1.0 5000.0 7.905138e-03 7.739137e-02
21 -1 0 0 101 102  0.000000e+00  0.000000e+00  3.215121e+03  3.215121e+03 0.0 0.0 9.0
21 -1 0 0 103 101  0.000000e+00  0.000000e+00 -1.701023e+03  1.701023e+03 0.0 0.0 9.0
21  1 1 2 103 102  2.513733e+02  2.027890e+03  1.952464e+03  2.826242e+03 0.0 0.0 9.0
22  1 1 2   0   0 -2.513733e+02 -2.027890e+03 -4.383654e+02  2.089902e+03 0.0 0.0 9.0
#pdf 21 21 4.946340e-01 2.616958e-01 5000.0 3.034551e-03 5.767247e-02
</event>
<event>
4 6 1.0 5000.0 7.905138e-03 7.739137e-02
21 -1 0 0 101 102  0.000000e+00  0.000000e+00  2.236848e+03  2.236848e+03 0.0 0.0 9.0
21 -1 0 0 103 101  0.000000e+00  0.000000e+00 -2.677084e+03  2.677084e+03 0.0 0.0 9.0
22  1 1 2   0   0 -3.508640e+02 -2.313143e+03  5.000608e+02  2.392446e+03 0.0 0.0 9.0
21  1 1 2 103 102  3.508640e+02  2.313143e+03 -9.402974e+02  2.521487e+03 0.0 0.0 9.0
#pdf 21 21 3.441304e-01 4.118592e-01 5000.0 2.097613e-02 9.017835e-03
</event>
<event>
4 6 1.0 5000.0 7.905138e-03 7.739137e-02
21 -1 0 0 101 102  0.000000e+00  0.000000e+00  2.832985e+03  2.832985e+03 0.0 0.0 9.0
21 -1 0 0 103 101  0.000000e+00  0.000000e+00 -2.297141e+03  2.297141e+03 0.0 0.0 9.0
22  1 1 2   0   0  1.754635e+03 -9.779523e+02  1.849031e+03  2.730211e+03 0.0 0.0 9.0
21  1 1 2 103 102 -1.754635e+03  9.779523e+02 -1.313188e+03  2.399916e+03 0.0 0.0 9.0
#pdf 21 21 4.358439e-01 3.534064e-01 5000.0 6.636604e-03 1.871307e-02
</event>
<event>
4 6 1.0 5000.0 7.905138e-03 7.739137e-02
21 -1 0 0 103 101  0.000000e+00  0.000000e+00  2.619731e+03  2.619731e+03 0.0 0.0 9.0
21 -1 0 0 101 102  0.000000e+00  0.000000e+00 -2.058203e+03  2.058203e+03 0.0 0.0 9.0
22  1 1 2   0   0 -1.653051e+03  7.958703e+02  1.714491e+03  2.511069e+03 0.0 0.0 9.0
21  1 1 2 103 102  1.653051e+03 -7.958703e+02 -1.152963e+03  2.166866e+03 0.0 0.0 9.0
#pdf 21 21 4.030356e-01 3.166466e-01 5000.0 1.008667e-02 2.937784e-02
</event>
<event>
4 6 1.0 5000.0 7.905138e-03 7.739137e-02
21 -1 0 0 101 102  0.000000e+00  0.000000e+00  3.160631e+03  3.160631e+03 0.0 0.0 9.0
21 -1 0 0 103 101  0.000000e+00  0.000000e+00 -2.027359e+03  2.027359e+03 0.0 0.0 9.0
21  1 1 2 103 102 -1.185445e+03 -2.165176e+03  1.141284e+03  2.719522e+03 0.0 0.0 9.0
22  1 1 2   0   0  1.185445e+03  2.165176e+03 -8.012133e+00  2.468468e+03 0.0 0.0 9.0
#pdf 21 21 4.862509e-01 3.119013e-01 5000.0 3.401237e-03 3.115430e-02
</event>
<event>
4 6 1.0 5000.0 7.905138e-03 7.739137e-02
21 -1 0 0 101 102  0.000000e+00  0.000000e+00  1.718802e+03  1.718802e+03 0.0 0.0 9.0
21 -1 0 0 103 101  0.000000e+00  0.000000e+00 -4.059930e+03  4.059930e+03 0.0 0.0 9.0
21  1 1 2 103 102  2.704210e+02  6.260001e+02 -3.962002e+03  4.020257e+03 0.0 0.0 9.0
22  1 1 2   0   0 -2.704210e+02 -6.260001e+02  1.620874e+03  1.758475e+03 0.0 0.0 9.0
#pdf 21 21 2.644310e-01 6.246047e-01 5000.0 5.574630e-02 4.291387e-04
</event>
<event>
4 6 1.0 5000.0 7.905138e-03 7.739137e-02
21 -1 0 0 103 101  0.000000e+00  0.000000e+00  1.420088e+03  1.420088e+03 0.0 0.0 9.0
21 -1 0 0 101 102  0.000000e+00  0.000000e+00 -3.757907e+03  3.757907e+03 0.0 0.0 9.0
22  1 1 2   0   0  2.126666e+02 -1.000980e+03  1.152211e+03  1.541032e+03 0.0 0.0 9.0
21  1 1 2 103 102 -2.126666e+02  1.000980e+03 -3.490030e+03  3.636963e+03 0.0 0.0 9.0
#pdf 21 21 2.184750e-01 5.781396e-01 5000.0 9.919571e-02 9.043156e-04
</event>
<event>
4 6 1.0 5000.0 7.905138e-03 7.739137e-02
21 -1 0 0 103 101  0.000000e+00  0.000000e+00  3.106856e+03  3.106856e+03 0.0 0.0 9.0
21 -1 0 0 101 102  0.000000e+00  0.000000e+00 -2.016323e+03  2.016323e+03 0.0 0.0 9.0
21  1 1 2 103 102 -6.384233e+02 -1.510274e+03 -1.390097e+03  2.149623e+03 0.0 0.0 9.0
22  1 1 2   0   0  6.384233e+02  1.510274e+03  2.480630e+03  2.973556e+03 0.0 0.0 9.0
#pdf 21 21 4.779779e-01 3.102035e-01 5000.0 3.805022e-03 3.181569e-02
</event>
<event>
4 6 1.0 5000.0 7.905138e-03 7.739137e-02
21 -1 0 0 103 101  0.000000e+00  0.000000e+00  3.988876e+03  3.988876e+03 0.0 0.0 9.0
21 -1 0 0 101 102  0.000000e+00  0.000000e+00 -1.163696e+03  1.163696e+03 0.0 0.0 9.0
22  1 1 2   0   0  3.717321e+02  1.538802e+03 -3.349340e+02  1.618110e+03 0.0 0.0 9.0
21  1 1 2 103 102 -3.717321e+02 -1.538802e+03  3.160115e+03  3.534462e+03 0.0 0.0 9.0
#pdf 21 21 6.136733e-01 1.790301e-01 5000.0 5.143015e-04 1.662485e-01
</event>
<event>
4 6 1.0 5000.0 7.905138e-03 7.739137e-02
21 -1 0 0 103 101  0.000000e+00  0.000000e+00  2.178170e+03  2.178170e+03 0.0 0.0 9.0
21 -1 0 0 101 102  0.000000e+00  0.000000e+00 -2.820893e+03  2.820893e+03 0.0 0.0 9.0
21  1 1 2 103 102 -9.302799e+02  2.147896e+03 -1.143975e+03  2.605294e+03 0.0 0.0 9.0
22  1 1 2   0   0  9.302799e+02 -2.147896e+03  5.012514e+02  2.393769e+03 0.0 0.0 9.0
#pdf 21 21 3.351031e-01 4.339836e-01 5000.0 2.343174e-02 6.796272e-03
</event>
<event>
4 6 1.0 5000.0 7.905138e-03 7.739137e-02
21 -1 0 0 103 101  0.000000e+00  0.000000e+00  1.501572e+03  1.501572e+03 0.0 0.0 9.0
21 -1 0 0 101 102  0.000000e+00  0.000000e+00 -3.856236e+03  3.856236e+03 0.0 0.0 9.0
22  1 1 2   0   0 -1.476676e+03 -6.326121e+02 -3.171817e+03  3.555445e+03 0.0 0.0 9.0
21  1 1 2 103 102  1.476676e+03  6.326121e+02  8.171536e+02  1.802362e+03 0.0 0.0 9.0
#pdf 21 21 2.310111e-01 5.932670e-01 5000.0 8.456326e-02 7.141625e-04
</event>
<event>
4 6 1.0 5000.0 7.905138e-03 7.739137e-02
21 -1 0 0 101 102  0.000000e+00  0.000000e+00  2.506952e+03  2.506952e+03 0.0 0.0 9.0
21 -1 0 0 103 101  0.000000e+00  0.000000e+00 -2.598439e+03  2.598439e+03 0.0 0.0 9.0
22  1 1 2   0   0 -1.108046e+03 -2.265369e+03 -4.388707e+02  2.559740e+03 0.0 0.0 9.0
21  1 1 2 103 102  1.108046e+03  2.265369e+03  3.473835e+02  2.545651e+03 0.0 0.0 9.0
#pdf 21 21 3.856849e-01 3.997599e-01 5000.0 1.254803e-02 1.051148e-02
</event>
<event>
4 6 1.0 5000.0 7.905138e-03 7.739137e-02
21 -1 0 0 101 102  0.000000e+00  0.000000e+00  2.714950e+03  2.714950e+03 0.0 0.0 9.0
21 -1 0 0 103 101  0.000000e+00  0.000000e+00 -2.012817e+03  2.012817e+03 0.0 0.0 9.0
21  1 1 2 103 102  3.526223e+01 -1.390907e+03 -1.548517e+03  2.081771e+03 0.0 0.0 9.0
22  1 1 2   0   0 -3.526223e+01  1.390907e+03  2.250650e+03  2.645996e+03 0.0 0.0 9.0
#pdf 21 21 4.176846e-01 3.096641e-01 5000.0 8.373733e-03 3.202836e-02
</event>
<event>
4 6 1.0 5000.0 7.905138e-03 7.739137e-02
21 -1 0 0 101 102  0.000000e+00  0.000000e+00  1.723947e+03  1.723947e+03 0.0 0.0 9.0
21 -1 0 0 103 101  0.000000e+00  0.000000e+00 -3.599243e+03  3.599243e+03 0.0 0.0 9.0
21  1 1 2 103 102 -1.168234e+03 -1.210543e+03  1.025230e+03  1.970097e+03 0.0 0.0 9.0
22  1 1 2   0   0  1.168234e+03  1.210543e+03 -2.900526e+03  3.353093e+03 0.0 0.0 9.0
#pdf 21 21 2.652227e-01 5.537297e-01 5000.0 5.520308e-02 1.307961e-03
</event>
<event>
4 6 1.0 5000.0 7.905138e-03 7.739137e-02
21 -1 0 0 103 101  0.000000e+00  0.000000e+00  3.789503e+03  3.789503e+03 0.0 0.0 9.0
21 -1 0 0 101 102  0.000000e+00  0.000000e+00 -1.473367e+03  1.473367e+03 0.0 0.0 9.0
21  1 1 2 103 102  8.297625e+02  1.227128e+03 -8.920581e+02  1.729195e+03 0.0 0.0 9.0
22  1 1 2   0   0 -8.297625e+02 -1.227128e+03  3.208194e+03  3.533675e+03 0.0 0.0 9.0
#pdf 21 21 5.830005e-01 2.266719e-01 5000.0 8.389965e-04 8.932081e-02
</event>
<event>
4 6 1.0 5000.0 7.905138e-03 7.739137e-02
21 -1 0 0 101 102  0.000000e+00  0.000000e+00  3.198080e+03  3.198080e+03 0.0 0.0 9.0
21 -1 0 0 103 101  0.000000e+00  0.000000e+00 -1.838524e+03  1.838524e+03 0.0 0.0 9.0
21  1 1 2 103 102  1.069272e+03 -1.249028e+03 -1.171159e+03  2.018670e+03 0.0 0.0 9.0
22  1 1 2   0   0 -1.069272e+03  1.249028e+03  2.530714e+03  3.017934e+03 0.0 0.0 9.0
#pdf 21 21 4.920122e-01 2.828499e-01 5000.0 3.145132e-03 4.443661e-02
</event>
<event>
4 6 1.0 5000.0 7.905138e-03 7.739137e-02
21 -1 0 0 103 101  0.000000e+00  0.000000e+00  2.699717e+03  2.699717e+03 0.0 0.0 9.0
21 -1 0 0 101 102  0.000000e+00  0.000000e+00 -2.269246e+03  2.269246e+03 0.0 0.0 9.0
22  1 1 2   0   0 -4.082294e+02  2.310294e+03  1.007019e+03  2.553076e+03 0.0 0.0 9.0
21  1 1 2 103 102  4.082294e+02 -2.310294e+03 -5.765482e+02  2.415888e+03 0.0 0.0 9.0
#pdf 21 21 4.153411e-01 3.491148e-01 5000.0 8.627176e-03 1.973362e-02
</event>
<event>
4 6 1.0 5000.0 7.905138e-03 7.739137e-02
21 -1 0 0 101 102  0.000000e+00  0.000000e+00  2.544837e+03  2.544837e+03 0.0 0.0 9.0
21 -1 0 0 103 101  0.000000e+00  0.000000e+00 -2.451973e+03  2.451973e+03 0.0 0.0 9.0
21  1 1 2 103 102 -1.048939e+03  4.590284e+02  2.266926e+03  2.539672e+03 0.0 0.0 9.0
22  1 1 2   0   0  1.048939e+03 -4.590284e+02 -2.174063e+03  2.457138e+03 0.0 0.0 9.0
#pdf 21 21 3.915134e-01 3.772267e-01 5000.0 1.165929e-02 1.394749e-02
</event>
<event>
4 6 1.0 5000.0 7.905138e-03 7.739137e-02
21 -1 0 0 103 101  0.000000e+00  0.000000e+00  1.854054e+03  1.854054e+03 0.0 0.0 9.0
21 -1 0 0 101 102  0.000000e+00  0.000000e+00 -3.098301e+03  3.098301e+03 0.0 0.0 9.0
21  1 1 2 103 102 -1.593108e+03 -1.456971e+03  4.533630e+02  2.205968e+03 0.0 0.0 9.0
22  1 1 2   0   0  1.593108e+03  1.456971e+03 -1.697610e+03  2.746386e+03 0.0 0.0 9.0
#pdf 21 21 2.852390e-01 4.766617e-01 5000.0 4.315860e-02 3.873171e-03
</event>
<event>
4 6 1.0 5000.0 7.905138e-03 7.739137e-02
21 -1 0 0 101 102  0.000000e+00  0.000000e+00  1.751987e+03  1.751987e+03 0.0 0.0 9.0
21 -1 0 0 103 101  0.000000e+00  0.000000e+00 -3.563209e+03  3.563209e+03 0.0 0.0 9.0
21  1 1 2 103 102  2.435070e+03 -4.211983e+01 -3.120953e+02  2.455350e+03 0.0 0.0 9.0
22  1 1 2   0   0 -2.435070e+03  4.211983e+01 -1.499127e+03  2.859846e+03 0.0 0.0 9.0
#pdf 21 21 2.695364e-01 5.481860e-01 5000.0 5.234321e-02 1.419718e-03
</event>
<event>
4 6 1.0 5000.0 7.905138e-03 7.739137e-02
21 -1 0 0 101 102  0.000000e+00  0.000000e+00  4.174288e+03  4.174288e+03 0.0 0.0 9.0
21 -1 0 0 103 101  0.000000e+00  0.000000e+00 -1.155096e+03  1.155096e+03 0.0 0.0 9.0
21  1 1 2 103 102  1.654911e+03 -1.585114e+02  3.250413e+03  3.650896e+03 0.0 0.0 9.0
22  1 1 2   0   0 -1.654911e+03  1.585114e+02 -2.312213e+02  1.678488e+03 0.0 0.0 9.0
#pdf 21 21 6.421981e-01 1.777071e-01 5000.0 3.176908e-04 1.692150e-01
</event>
<event>
4 6 1.0 5000.0 7.905138e-03 7.739137e-02
21 -1 0 0 101 102  0.000000e+00  0.000000e+00  2.649916e+03  2.649916e+03 0.0 0.0 9.0
21 -1 0 0 103 101  0.000000e+00  0.000000e+00 -1.833919e+03  1.833919e+03 0.0 0.0 9.0
21  1 1 2 103 102  2.783188e+02  3.328065e+02  2.606072e+03  2.641937e+03 0.0 0.0 9.0
22  1 1 2   0   0 -2.783188e+02 -3.328065e+02 -1.790074e+03  1.841898e+03 0.0 0.0 9.0
#pdf 21 21 4.076794e-01 2.821413e-01 5000.0 9.510772e-03 4.482536e-02
</event>
<event>
4 6 1.0 5000.0 7.905138e-03 7.739137e-02
21 -1 0 0 103 101  0.000000e+00  0.000000e+00  3.033682e+03  3.033682e+03 0.0 0.0 9.0
21 -1 0 0 101 102  0.000000e+00  0.000000e+00 -2.205580e+03  2.205580e+03 0.0 0.0 9.0
22  1 1 2   0   0 -1.450788e+02 -2.193770e+03  1.794249e+03  2.837781e+03 0.0 0.0 9.0
21  1 1 2 103 102  1.450788e+02  2.193770e+03 -9.661469e+02  2.401481e+03 0.0 0.0 9.0
#pdf 21 21 4.667204e-01 3.393200e-01 5000.0 4.423527e-03 2.224747e-02
</event>
<event>
4 6 1.0 5000.0 7.905138e-03 7.739137e-02
21 -1 0 0 101 102  0.000000e+00  0.000000e+00  2.815045e+03  2.815045e+03 0.0 0.0 9.0
21 -1 0 0 103 101  0.000000e+00  0.000000e+00 -2.048544e+03  2.048544e+03 0.0 0.0 9.0
21  1 1 2 103 102 -1.024595e+03  1.487972e+02 -1.810921e+03  2.085994e+03 0.0 0.0 9.0
22  1 1 2   0   0  1.024595e+03 -1.487972e+02  2.577421e+03  2.777595e+03 0.0 0.0 9.0
#pdf 21 21 4.330838e-01 3.151607e-01 5000.0 6.874774e-03 2.992188e-02
</event>
<event>
4 6 1.0 5000.0 7.905138e-03 7.739137e-02
21 -1 0 0 101 102  0.000000e+00  0.000000e+00  2.693408e+03  2.693408e+03 0.0 0.0 9.0
21 -1 0 0 103 101  0.000000e+00  0.000000e+00 -2.209851e+03  2.209851e+03 0.0 0.0 9.0
22  1 1 2   0   0  7.181302e+02 -2.648386e+02  2.569628e+03  2.681201e+03 0.0 0.0 9.0
21  1 1 2 103 102 -7.181302e+02  2.648386e+02 -2.086071e+03  2.222058e+03 0.0 0.0 9.0
#pdf 21 21 4.143704e-01 3.399771e-01 5000.0 8.734346e-03 2.206907e-02
</event>
<event>
4 6 1.0 5000.0 7.905138e-03 7.739137e-02
21 -1 0 0 101 102  0.000000e+00  0.000000e+00  2.910725e+03  2.910725e+03 0.0 0.0 9.0
21 -1 0 0 103 101  0.000000e+00  0.000000e+00 -2.003657e+03  2.003657e+03 0.0 0.0 9.0
22  1 1 2   0   0 -1.616258e+03  1.617591e+03 -3.367043e+02  2.311333e+03 0.0 0.0 9.0
21  1 1 2 103 102  1.616258e+03 -1.617591e+03  1.243773e+03  2.603048e+03 0.0 0.0 9.0
#pdf 21 21 4.478038e-01 3.082549e-01 5000.0 5.674605e-03 3.258940e-02
</event>
<event>
4 6 1.0 5000.0 7.905138e-03 7.739137e-02
21 -1 0 0 101 102  0.000000e+00  0.000000e+00  1.694218e+03  1.694218e+03 0.0 0.0 9.0
21 -1 0 0 103 101  0.000000e+00  0.000000e+00 -2.660044e+03  2.660044e+03 0.0 0.0 9.0
21  1 1 2 103 102  1.082379e+03 -1.319920e+03 -1.777283e+03  2.464237e+03 0.0 0.0 9.0
22  1 1 2   0   0 -1.082379e+03  1.319920e+03  8.114565e+02  1.890025e+03 0.0 0.0 9.0
#pdf 21 21 2.606490e-01 4.092376e-01 5000.0 5.843152e-02 9.323905e-03
</event>
<event>
4 6 1.0 5000.0 7.905138e-03 7.739137e-02
21 -1 0 0 101 102  0.000000e+00  0.000000e+00  3.233663e+03  3.233663e+03 0.0 0.0 9.0
21 -1 0 0 103 101  0.000000e+00  0.000000e+00 -1.844405e+03  1.844405e+03 0.0 0.0 9.0
22  1 1 2   0   0 -1.938008e+03  1.374931e+03  1.280793e+03  2.699397e+03 0.0 0.0 9.0
21  1 1 2 103 102  1.938008e+03 -1.374931e+03  1.084646e+02  2.378671e+03 0.0 0.0 9.0
#pdf 21 21 4.974866e-01 2.837546e-01 5000.0 2.918017e-03 4.394690e-02
</event>
<event>
4 6 1.0 5000.0 7.905138e-03 7.739137e-02
21 -1 0 0 103 101  0.000000e+00  0.000000e+00  3.282099e+03  3.282099e+03 0.0 0.0 9.0
21 -1 0 0 101 102  0.000000e+00  0.000000e+00 -1.460251e+03  1.460251e+03 0.0 0.0 9.0
22  1 1 2   0   0  1.913323e+03  9.729673e+02  4.447819e+02  2.192100e+03 0.0 0.0 9.0
21  1 1 2 103 102 -1.913323e+03 -9.729673e+02  1.377066e+03  2.550251e+03 0.0 0.0 9.0
#pdf 21 21 5.049384e-01 2.246540e-01 5000.0 2.631985e-03 9.165037e-02
</event>
<event>
4 6 1.0 5000.0 7.905138e-03 7.739137e-02
21 -1 0 0 101 102  0.000000e+00  0.000000e+00  2.251599e+03  2.251599e+03 0.0 0.0 9.0
21 -1 0 0 103 101  0.000000e+00  0.000000e+00 -2.425979e+03  2.425979e+03 0.0 0.0 9.0
22  1 1 2   0   0  1.472896e+03 -1.267113e+03 -1.387068e+03  2.387249e+03 0.0 0.0 9.0
21  1 1 2 103 102 -1.472896e+03  1.267113e+03  1.212689e+03  2.290330e+03 0.0 0.0 9.0
#pdf 21 21 3.463999e-01 3.732276e-01 5000.0 2.040189e-02 1.464674e-02
</event>
<event>
4 6 1.0 5000.0 7.905138e-03 7.739137e-02
21 -1 0 0 101 102  0.000000e+00  0.000000e+00  2.785070e+03  2.785070e+03 0.0 0.0 9.0
21 -1 0 0 103 101  0.000000e+00  0.000000e+00 -2.246794e+03  2.246794e+03 0.0 0.0 9.0
22  1 1 2   0   0  2.092369e+03  1.017916e+03  1.192762e+03  2.614736e+03 0.0 0.0 9.0
21  1 1 2 103 102 -2.092369e+03 -1.017916e+03 -6.544862e+02  2.417129e+03 0.0 0.0 9.0
#pdf 21 21 4.284724e-01 3.456606e-01 5000.0 7.292515e-03 2.058730e-02
</event>
<event>
4 6 1.0 5000.0 7.905138e-03 7.739137e-02
21 -1 0 0 103 101  0.000000e+00  0.000000e+00  2.020311e+03  2.020311e+03 0.0 0.0 9.0
21 -1 0 0 101 102  0.000000e+00  0.000000e+00 -3.146139e+03  3.146139e+03 0.0 0.0 9.0
22  1 1 2   0   0 -1.157120e+03 -1.034467e+03 -2.598573e+03  3.026818e+03 0.0 0.0 9.0
21  1 1 2 103 102  1.157120e+03  1.034467e+03  1.472744e+03  2.139632e+03 0.0 0.0 9.0
#pdf 21 21 3.108170e-01 4.840214e-01 5000.0 3.157528e-02 3.505689e-03
</event>
<event>
4 6 1.0 5000.0 7.905138e-03 7.739137e-02
21 -1 0 0 101 102  0.000000e+00  0.000000e+00  2.297079e+03  2.297079e+03 0.0 0.0 9.0
21 -1 0 0 103 101  0.000000e+00  0.000000e+00 -2.630008e+03  2.630008e+03 0.0 0.0 9.0
22  1 1 2   0   0 -1.497485e+03  7.653284e+02 -1.963096e+03  2.584944e+03 0.0 0.0 9.0
21  1 1 2 103 102  1.497485e+03 -7.653284e+02  1.630167e+03  2.342143e+03 0.0 0.0 9.0
#pdf 21 21 3.533967e-01 4.046166e-01 5000.0 1.871532e-02 9.887290e-03
</event>
<event>
4 6 1.0 5000.0 7.905138e-03 7.739137e-02
21 -1 0 0 101 102  0.000000e+00  0.000000e+00  1.801507e+03  1.801507e+03 0.0 0.0 9.0
21 -1 0 0 103 101  0.000000e+00  0.000000e+00 -3.276490e+03  3.276490e+03 0.0 0.0 9.0
22  1 1 2   0   0  1.575251e+03  1.041472e+03  8.599557e+02  2.074995e+03 0.0 0.0 9.0
21  1 1 2 103 102 -1.575251e+03 -1.041472e+03 -2.334938e+03  3.003001e+03 0.0 0.0 9.0
#pdf 21 21 2.771549e-01 5.040753e-01 5000.0 4.766471e-02 2.663640e-03
</event>
<event>
4 6 1.0 5000.0 7.905138e-03 7.739137e-02
21 -1 0 0 103 101  0.000000e+00  0.000000e+00  1.822837e+03  1.822837e+03 0.0 0.0 9.0
21 -1 0 0 101 102  0.000000e+00  0.000000e+00 -3.332464e+03  3.332464e+03 0.0 0.0 9.0
21  1 1 2 103 102  8.277634e+02  1.148434e+03  1.355215e+03  1.959771e+03 0.0 0.0 9.0
22  1 1 2   0   0 -8.277634e+02 -1.148434e+03 -2.864842e+03  3.195530e+03 0.0 0.0 9.0
#pdf 21 21 2.804365e-01 5.126868e-01 5000.0 4.577790e-02 2.363209e-03
</event>
<event>
4 6 1.0 5000.0 7.905138e-03 7.739137e-02
21 -1 0 0 101 102  0.000000e+00  0.000000e+00  1.754763e+03  1.754763e+03 0.0 0.0 9.0
21 -1 0 0 103 101  0.000000e+00  0.000000e+00 -3.094846e+03  3.094846e+03 0.0 0.0 9.0
22  1 1 2   0   0  3.370470e+02  1.361686e+03  1.266246e+03  1.889754e+03 0.0 0.0 9.0
21  1 1 2 103 102 -3.370470e+02 -1.361686e+03 -2.606329e+03  2.959855e+03 0.0 0.0 9.0
#pdf 21 21 2.699635e-01 4.761302e-01 5000.0 5.206886e-02 3.900992e-03
</event>
<event>
4 6 1.0 5000.0 7.905138e-03 7.739137e-02
21 -1 0 0 103 101  0.000000e+00  0.000000e+00  3.076459e+03  3.076459e+03 0.0 0.0 9.0
21 -1 0 0 101 102  0.000000e+00  0.000000e+00 -2.000547e+03  2.000547e+03 0.0 0.0 9.0
21  1 1 2 103 102  2.125499e+03  3.701094e+02  1.791111e+03  2.804070e+03 0.0 0.0 9.0
22  1 1 2   0   0 -2.125499e+03 -3.701094e+02 -7.151996e+02  2.272936e+03 0.0 0.0 9.0
#pdf 21 21 4.733013e-01 3.077765e-01 5000.0 4.052033e-03 3.278155e-02
</event>
<event>
4 6 1.0 5000.0 7.905138e-03 7.739137e-02
21 -1 0 0 103 101  0.000000e+00  0.000000e+00  2.618046e+03  2.618046e+03 0.0 0.0 9.0
21 -1 0 0 101 102  0.000000e+00  0.000000e+00 -2.399830e+03  2.399830e+03 0.0 0.0 9.0
22  1 1 2   0   0  2.274152e+03  6.989662e+02 -6.806520e+02  2.474593e+03 0.0 0.0 9.0
21  1 1 2 103 102 -2.274152e+03 -6.989662e+02  8.988683e+02  2.543283e+03 0.0 0.0 9.0
#pdf 21 21 4.027763e-01 3.692046e-01 5000.0 1.011972e-02 1.538755e-02
</event>
<event>
4 6 1.0 5000.0 7.905138e-03 7.739137e-02
21 -1 0 0 103 101  0.000000e+00  0.000000e+00  2.300914e+03  2.300914e+03 0.0 0.0 9.0
21 -1 0 0 101 102  0.000000e+00  0.000000e+00 -2.756992e+03  2.756992e+03 0.0 0.0 9.0
21  1 1 2 103 102 -1.378284e+03  2.130488e+02 -2.333889e+03  2.718841e+03 0.0 0.0 9.0
22  1 1 2   0   0  1.378284e+03 -2.130488e+02  1.877811e+03  2.339066e+03 0.0 0.0 9.0
#pdf 21 21 3.539868e-01 4.241527e-01 5000.0 1.857799e-02 7.709694e-03
</event>
<event>
4 6 1.0 5000.0 7.905138e-03 7.739137e-02
21 -1 0 0 103 101  0.000000e+00  0.000000e+00  2.605789e+03  2.605789e+03 0.0 0.0 9.0
21 -1 0 0 101 102  0.000000e+00  0.000000e+00 -2.255559e+03  2.255559e+03 0.0 0.0 9.0
22  1 1 2   0   0  1.137038e+03 -1.096386e+02  2.319058e+03  2.585132e+03 0.0 0.0 9.0
21  1 1 2 103 102 -1.137038e+03  1.096386e+02 -1.968828e+03  2.276216e+03 0.0 0.0 9.0
#pdf 21 21 4.008906e-01 3.470091e-01 5000.0 1.036301e-02 2.025025e-02
</event>
<event>
4 6 1.0 5000.0 7.905138e-03 7.739137e-02
21 -1 0 0 103 101  0.000000e+00  0.000000e+00  1.838594e+03  1.838594e+03 0.0 0.0 9.0
21 -1 0 0 101 102  0.000000e+00  0.000000e+00 -3.252802e+03  3.252802e+03 0.0 0.0 9.0
22  1 1 2   0   0 -1.462326e+03  6.703628e+02 -2.624510e+03  3.078285e+03 0.0 0.0 9.0
21  1 1 2 103 102  1.462326e+03 -6.703628e+02  1.210302e+03  2.013111e+03 0.0 0.0 9.0
#pdf 21 21 2.828606e-01 5.004310e-01 5000.0 4.443079e-02 2.801564e-03
</event>
<event>
4 6 1.0 5000.0 7.905138e-03 7.739137e-02
21 -1 0 0 103 101  0.000000e+00  0.000000e+00  1.762505e+03  1.762505e+03 0.0 0.0 9.0
21 -1 0 0 101 102  0.000000e+00  0.000000e+00 -3.467624e+03  3.467624e+03 0.0 0.0 9.0
21  1 1 2 103 102 -1.731315e+03  1.676023e+03 -2.681828e+02  2.424547e+03 0.0 0.0 9.0
22  1 1 2   0   0  1.731315e+03 -1.676023e+03 -1.436936e+03  2.805582e+03 0.0 0.0 9.0
#pdf 21 21 2.711546e-01 5.334806e-01 5000.0 5.131170e-02 1.759600e-03
</event>
<event>
4 6 1.0 5000.0 7.905138e-03 7.739137e-02
21 -1 0 0 101 102  0.000000e+00  0.000000e+00  2.360016e+03  2.360016e+03 0.0 0.0 9.0
21 -1 0 0 103 101  0.000000e+00  0.000000e+00 -2.507844e+03  2.507844e+03 0.0 0.0 9.0
21  1 1 2 103 102 -1.227128e+03 -1.825560e+03 -1.113644e+03  2.465505e+03 0.0 0.0 9.0
22  1 1 2   0   0  1.227128e+03  1.825560e+03  9.658165e+02  2.402356e+03 0.0 0.0 9.0
#pdf 21 21 3.630794e-01 3.858222e-01 5000.0 1.660974e-02 1.252634e-02
</event>
<event>
4 6 1.0 5000.0 7.905138e-03 7.739137e-02
21 -1 0 0 103 101  0.000000e+00  0.000000e+00  2.339734e+03  2.339734e+03 0.0 0.0 9.0
21 -1 0 0 101 102  0.000000e+00  0.000000e+00 -2.572353e+03  2.572353e+03 0.0 0.0 9.0
21  1 1 2 103 102 -3.151570e+02 -1.976631e+03 -1.536432e+03  2.523295e+03 0.0 0.0 9.0
22  1 1 2   0   0  3.151570e+02  1.976631e+03  1.303814e+03  2.388792e+03 0.0 0.0 9.0
#pdf 21 21 3.599591e-01 3.957465e-01 5000.0 1.725711e-02 1.105521e-02
</event>
<event>
4 6 1.0 5000.0 7.905138e-03 7.739137e-02
21 -1 0 0 103 101  0.000000e+00  0.000000e+00  2.957361e+03  2.957361e+03 0.0 0.0 9.0
21 -1 0 0 101 102  0.000000e+00  0.000000e+00 -2.074668e+03  2.074668e+03 0.0 0.0 9.0
21  1 1 2 103 102 -1.614335e+03 -8.772896e+02  2.128784e+03  2.812017e+03 0.0 0.0 9.0
22  1 1 2   0   0  1.614335e+03  8.772896e+02 -1.246091e+03  2.220013e+03 0.0 0.0 9.0
#pdf 21 21 4.549787e-01 3.191798e-01 5000.0 5.169620e-03 2.847774e-02
</event>
<event>
4 6 1.0 5000.0 7.905138e-03 7.739137e-02
21 -1 0 0 103 101  0.000000e+00  0.000000e+00  3.206929e+03  3.206929e+03 0.0 0.0 9.0
21 -1 0 0 101 102  0.000000e+00  0.000000e+00 -2.021916e+03  2.021916e+03 0.0 0.0 9.0
22  1 1 2   0   0 -5.822634e+02  1.518977e+03  2.603876e+03  3.070259e+03 0.0 0.0 9.0
21  1 1 2 103 102  5.822634e+02 -1.518977e+03 -1.418862e+03  2.158586e+03 0.0 0.0 9.0
#pdf 21 21 4.933737e-01 3.110639e-01 5000.0 3.087276e-03 3.147896e-02
</event>
<event>
4 6 1.0 5000.0 7.905138e-03 7.739137e-02
21 -1 0 0 101 102  0.000000e+00  0.000000e+00  2.485667e+03  2.485667e+03 0.0 0.0 9.0
21 -1 0 0 103 101  0.000000e+00  0.000000e+00 -2.674242e+03  2.674242e+03 0.0 0.0 9.0
21  1 1 2 103 102 -5.952015e+02  9.420796e+02 -2.420814e+03  2.664980e+03 0.0 0.0 9.0
22  1 1 2   0   0  5.952015e+02 -9.420796e+02  2.232239e+03  2.494929e+03 0.0 0.0 9.0
#pdf 21 21 3.824103e-01 4.114218e-01 5000.0 1.307566e-02 9.068155e-03
</event>
<event>
4 6 1.0 5000.0 7.905138e-03 7.739137e-02
21 -1 0 0 103 101  0.000000e+00  0.000000e+00  1.880541e+03  1.880541e+03 0.0 0.0 9.0
21 -1 0 0 101 102  0.000000e+00  0.000000e+00 -3.177710e+03  3.177710e+03 0.0 0.0 9.0
21  1 1 2 103 102  2.144877e+03  7.879643e+02 -1.547214e+03  2.759576e+03 0.0 0.0 9.0
22  1 1 2   0   0 -2.144877e+03 -7.879643e+02  2.500449e+02  2.298676e+03 0.0 0.0 9.0
#pdf 21 21 2.893140e-01 4.888785e-01 5000.0 4.107889e-02 3.282073e-03
</event>
<event>
4 6 1.0 5000.0 7.905138e-03 7.739137e-02
21 -1 0 0 103 101  0.000000e+00  0.000000e+00  1.673291e+03  1.673291e+03 0.0 0.0 9.0
21 -1 0 0 101 102  0.000000e+00  0.000000e+00 -4.094113e+03  4.094113e+03 0.0 0.0 9.0
22  1 1 2   0   0  5.836177e+02 -7.940514e+02  1.461091e+03  1.762360e+03 0.0 0.0 9.0
21  1 1 2 103 102 -5.836177e+02  7.940514e+02 -3.881913e+03  4.005044e+03 0.0 0.0 9.0
#pdf 21 21 2.574294e-01 6.298636e-01 5000.0 6.083724e-02 3.925177e-04
</event>
<event>
4 6 1.0 5000.0 7.905138e-03 7.739137e-02
21 -1 0 0 103 101  0.000000e+00  0.000000e+00  1.130915e+03  1.130915e+03 0.0 0.0 9.0
21 -1 0 0 101 102  0.000000e+00  0.000000e+00 -5.295815e+03  5.295815e+03 0.0 0.0 9.0
21  1 1 2 103 102  1.985693e+03  1.396359e+03 -2.489970e+03  3.477462e+03 0.0 0.0 9.0
22  1 1 2   0   0 -1.985693e+03 -1.396359e+03 -1.674931e+03  2.949269e+03 0.0 0.0 9.0
#pdf 21 21 1.739869e-01 8.147408e-01 5000.0 1.778358e-01 6.620588e-06
</event>
<event>
4 6 1.0 5000.0 7.905138e-03 7.739137e-02
21 -1 0 0 101 102  0.000000e+00  0.000000e+00  2.519224e+03  2.519224e+03 0.0 0.0 9.0
21 -1 0 0 103 101  0.000000e+00  0.000000e+00 -1.847933e+03  1.847933e+03 0.0 0.0 9.0
22  1 1 2   0   0 -7.547295e+02  1.668807e+03 -8.186077e+02  2.006154e+03 0.0 0.0 9.0
21  1 1 2 103 102  7.547295e+02 -1.668807e+03  1.489899e+03  2.361002e+03 0.0 0.0 9.0
#pdf 21 21 3.875729e-01 2.842973e-01 5000.0 1.225280e-02 4.365659e-02
</event>
<event>
4 6 1.0 5000.0 7.905138e-03 7.739137e-02
21 -1 0 0 103 101  0.000000e+00  0.000000e+00  1.800099e+03  1.800099e+03 0.0 0.0 9.0
21 -1 0 0 101 102  0.000000e+00  0.000000e+00 -3.477890e+03  3.477890e+03 0.0 0.0 9.0
21  1 1 2 103 102 -2.602683e+02  1.652912e+03 -2.800961e+03  3.262704e+03 0.0 0.0 9.0
22  1 1 2   0   0  2.602683e+02 -1.652912e+03  1.123170e+03  2.015284e+03 0.0 0.0 9.0
#pdf 21 21 2.769383e-01 5.350599e-01 5000.0 4.779181e-02 1.719498e-03
</event>
<event>
4 6 1.0 5000.0 7.905138e-03 7.739137e-02
21 -1 0 0 103 101  0.000000e+00  0.000000e+00  2.873171e+03  2.873171e+03 0.0 0.0 9.0
21 -1 0 0 101 102  0.000000e+00  0.000000e+00 -1.565266e+03  1.565266e+03 0.0 0.0 9.0
22  1 1 2   0   0  1.768482e+03 -1.166969e+03  7.471424e+02  2.246679e+03 0.0 0.0 9.0
21  1 1 2 103 102 -1.768482e+03  1.166969e+03  5.607632e+02  2.191758e+03 0.0 0.0 9.0
#pdf 21 21 4.420264e-01 2.408101e-01 5000.0 6.125973e-03 7.485208e-02
</event>
<event>
4 6 1.0 5000.0 7.905138e-03 7.739137e-02
21 -1 0 0 103 101  0.000000e+00  0.000000e+00  2.411215e+03  2.411215e+03 0.0 0.0 9.0
21 -1 0 0 101 102  0.000000e+00  0.000000e+00 -2.614170e+03  2.614170e+03 0.0 0.0 9.0
21  1 1 2 103 102  1.497823e+03  2.939589e+02 -2.096454e+03  2.593261e+03 0.0 0.0 9.0
22  1 1 2   0   0 -1.497823e+03 -2.939589e+02  1.893499e+03  2.432123e+03 0.0 0.0 9.0
#pdf 21 21 3.709561e-01 4.021800e-01 5000.0 1.505666e-02 1.019608e-02
</event>
<event>
4 6 1.0 5000.0 7.905138e-03 7.739137e-02
21 -1 0 0 103 101  0.000000e+00  0.000000e+00  1.596963e+03  1.596963e+03 0.0 0.0 9.0
21 -1 0 0 101 102  0.000000e+00  0.000000e+00 -3.328735e+03  3.328735e+03 0.0 0.0 9.0
22  1 1 2   0   0 -1.449560e+03  7.869857e+02 -2.586742e+03  3.067866e+03 0.0 0.0 9.0
21  1 1 2 103 102  1.449560e+03 -7.869857e+02  8.549698e+02  1.857833e+03 0.0 0.0 9.0
#pdf 21 21 2.456867e-01 5.121131e-01 5000.0 7.033664e-02 2.382229e-03
</event>
<event>
4 6 1.0 5000.0 7.905138e-03 7.739137e-02
21 -1 0 0 101 102  0.000000e+00  0.000000e+00  2.190338e+03  2.190338e+03 0.0 0.0 9.0
21 -1 0 0 103 101  0.000000e+00  0.000000e+00 -2.650483e+03  2.650483e+03 0.0 0.0 9.0
21  1 1 2 103 102  2.137955e+03  1.092127e+03 -2.454551e+01  2.400874e+03 0.0 0.0 9.0
22  1 1 2   0   0 -2.137955e+03 -1.092127e+03 -4.356000e+02  2.439947e+03 0.0 0.0 9.0
#pdf 21 21 3.369751e-01 4.077667e-01 5000.0 2.289749e-02 9.500218e-03
</event>
<event>
4 6 1.0 5000.0 7.905138e-03 7.739137e-02
21 -1 0 0 103 101  0.000000e+00  0.000000e+00  2.515207e+03  2.515207e+03 0.0 0.0 9.0
21 -1 0 0 101 102  0.000000e+00  0.000000e+00 -2.402718e+03  2.402718e+03 0.0 0.0 9.0
22  1 1 2   0   0  1.503015e+03  1.917262e+03  3.855474e+02  2.466495e+03 0.0 0.0 9.0
21  1 1 2 103 102 -1.503015e+03 -1.917262e+03 -2.730578e+02  2.451430e+03 0.0 0.0 9.0
#pdf 21 21 3.869550e-01 3.696489e-01 5000.0 1.234867e-02 1.530243e-02
</event>
<event>
4 6 1.0 5000.0 7.905138e-03 7.739137e-02
21 -1 0 0 103 101  0.000000e+00  0.000000e+00  1.561057e+03  1.561057e+03 0.0 0.0 9.0
21 -1 0 0 101 102  0.000000e+00  0.000000e+00 -3.731686e+03  3.731686e+03 0.0 0.0 9.0
22  1 1 2   0   0 -1.341534e+03  6.522672e+02  9.951133e+02  1.793158e+03 0.0 0.0 9.0
21  1 1 2 103 102  1.341534e+03 -6.522672e+02 -3.165743e+03  3.499585e+03 0.0 0.0 9.0
#pdf 21 21 2.401625e-01 5.741055e-01 5000.0 7.546323e-02 9.621634e-04
</event>
<event>
4 6 1.0 5000.0 7.905138e-03 7.739137e-02
21 -1 0 0 103 101  0.000000e+00  0.000000e+00  1.562364e+03  1.562364e+03 0.0 0.0 9.0
21 -1 0 0 101 102  0.000000e+00  0.000000e+00 -3.882327e+03  3.882327e+03 0.0 0.0 9.0
22  1 1 2   0   0  1.443064e+03 -8.472539e+02 -3.157404e+03  3.573440e+03 0.0 0.0 9.0
21  1 1 2 103 102 -1.443064e+03  8.472539e+02  8.374410e+02  1.871251e+03 0.0 0.0 9.0
#pdf 21 21 2.403637e-01 5.972811e-01 5000.0 7.527303e-02 6.701864e-04
</event>
<event>
4 6 1.0 5000.0 7.905138e-03 7.739137e-02
21 -1 0 0 101 102  0.000000e+00  0.000000e+00  3.634262e+03  3.634262e+03 0.0 0.0 9.0
21 -1 0 0 103 101  0.000000e+00  0.000000e+00 -1.601890e+03  1.601890e+03 0.0 0.0 9.0
22  1 1 2   0   0  1.651945e+03 -1.386246e+03 -1.580430e+02  2.162308e+03 0.0 0.0 9.0
21  1 1 2 103 102 -1.651945e+03  1.386246e+03  2.190415e+03  3.073844e+03 0.0 0.0 9.0
#pdf 21 21 5.591172e-01 2.464446e-01 5000.0 1.209086e-03 6.969041e-02
</event>
<event>
4 6 1.0 5000.0 7.905138e-03 7.739137e-02
21 -1 0 0 101 102  0.000000e+00  0.000000e+00  2.820147e+03  2.820147e+03 0.0 0.0 9.0
21 -1 0 0 103 101  0.000000e+00  0.000000e+00 -2.200308e+03  2.200308e+03 0.0 0.0 9.0
21  1 1 2 103 102 -7.696733e+02 -9.732426e+02 -1.866732e+03  2.241492e+03 0.0 0.0 9.0
22  1 1 2   0   0  7.696733e+02  9.732426e+02  2.486571e+03  2.778963e+03 0.0 0.0 9.0
#pdf 21 21 4.338687e-01 3.385089e-01 5000.0 6.806243e-03 2.246991e-02
</event>
<event>
4 6 1.0 5000.0 7.905138e-03 7.739137e-02
21 -1 0 0 103 101  0.000000e+00  0.000000e+00  2.690691e+03  2.690691e+03 0.0 0.0 9.0
21 -1 0 0 101 102  0.000000e+00  0.000000e+00 -2.279951e+03  2.279951e+03 0.0 0.0 9.0
21  1 1 2 103 102  2.142681e+03 -3.119640e+02 -1.001354e+03  2.385605e+03 0.0 0.0 9.0
22  1 1 2   0   0 -2.142681e+03  3.119640e+02  1.412094e+03  2.585036e+03 0.0 0.0 9.0
#pdf 21 21 4.139525e-01 3.507616e-01 5000.0 8.780892e-03 1.933719e-02
</event>
<event>
4 6 1.0 5000.0 7.905138e-03 7.739137e-02
21 -1 0 0 101 102  0.000000e+00  0.000000e+00  2.850521e+03  2.850521e+03 0.0 0.0 9.0
21 -1 0 0 103 101  0.000000e+00  0.000000e+00 -2.010363e+03  2.010363e+03 0.0 0.0 9.0
21  1 1 2 103 102  1.593008e+03  2.135118e+02  2.221256e+03  2.741758e+03 0.0 0.0 9.0
22  1 1 2   0   0 -1.593008e+03 -2.135118e+02 -1.381098e+03  2.119126e+03 0.0 0.0 9.0
#pdf 21 21 4.385416e-01 3.092866e-01 5000.0 6.410519e-03 3.217789e-02
</event>
<event>
4 6 1.0 5000.0 7.905138e-03 7.739137e-02
21 -1 0 0 103 101  0.000000e+00  0.000000e+00  2.120173e+03  2.120173e+03 0.0 0.0 9.0
21 -1 0 0 101 102  0.000000e+00  0.000000e+00 -3.055933e+03  3.055933e+03 0.0 0.0 9.0
21  1 1 2 103 102  1.948204e+02  2.195500e+03  8.266070e+02  2.354030e+03 0.0 0.0 9.0
22  1 1 2   0   0 -1.948204e+02 -2.195500e+03 -1.762367e+03  2.822076e+03 0.0 0.0 9.0
#pdf 21 21 3.261804e-01 4.701436e-01 5000.0 2.613963e-02 4.226693e-03
</event>
<event>
4 6 1.0 5000.0 7.905138e-03 7.739137e-02
21 -1 0 0 103 101  0.000000e+00  0.000000e+00  2.004423e+03  2.004423e+03 0.0 0.0 9.0
21 -1 0 0 101 102  0.000000e+00  0.000000e+00 -2.412581e+03  2.412581e+03 0.0 0.0 9.0
21  1 1 2 103 102  9.338161e+02 -1.871411e+03  4.782818e+02  2.145448e+03 0.0 0.0 9.0
22  1 1 2   0   0 -9.338161e+02  1.871411e+03 -8.864405e+02  2.271556e+03 0.0 0.0 9.0
#pdf 21 21 3.083727e-01 3.711663e-01 5000.0 3.254219e-02 1.501782e-02
</event>
<event>
4 6 1.0 5000.0 7.905138e-03 7.739137e-02
21 -1 0 0 101 102  0.000000e+00  0.000000e+00  2.442300e+03  2.442300e+03 0.0 0.0 9.0
21 -1 0 0 103 101  0.000000e+00  0.000000e+00 -2.513716e+03  2.513716e+03 0.0 0.0 9.0
22  1 1 2   0   0 -1.736726e+03 -1.212317e+03 -1.321656e+03  2.496539e+03 0.0 0.0 9.0
21  1 1 2 103 102  1.736726e+03  1.212317e+03  1.250240e+03  2.459477e+03 0.0 0.0 9.0
#pdf 21 21 3.757384e-01 3.867256e-01 5000.0 1.420523e-02 1.238445e-02
</event>
<event>
4 6 1.0 5000.0 7.905138e-03 7.739137e-02
21 -1 0 0 103 101  0.000000e+00  0.000000e+00  2.936948e+03  2.936948e+03 0.0 0.0 9.0
21 -1 0 0 101 102  0.000000e+00  0.000000e+00 -1.926515e+03  1.926515e+03 0.0 0.0 9.0
21  1 1 2 103 102  2.154777e+03 -6.197296e+02 -3.068230e+02  2.263022e+03 0.0 0.0 9.0
22  1 1 2   0   0 -2.154777e+03  6.197296e+02  1.317256e+03  2.600441e+03 0.0 0.0 9.0
#pdf 21 21 4.518381e-01 2.963869e-01 5000.0 5.387463e-03 3.768256e-02
</event>
<event>
4 6 1.0 5000.0 7.905138e-03 7.739137e-02
21 -1 0 0 101 102  0.000000e+00  0.000000e+00  3.449165e+03  3.449165e+03 0.0 0.0 9.0
21 -1 0 0 103 101  0.000000e+00  0.000000e+00 -1.896958e+03  1.896958e+03 0.0 0.0 9.0
22  1 1 2   0   0  1.362264e+03 -1.248646e+03  2.624348e+03  3.209685e+03 0.0 0.0 9.0
21  1 1 2 103 102 -1.362264e+03  1.248646e+03 -1.072141e+03  2.136437e+03 0.0 0.0 9.0
#pdf 21 21 5.306407e-01 2.918397e-01 5000.0 1.833181e-03 3.984084e-02
</event>
<event>
4 6 1.0 5000.0 7.905138e-03 7.739137e-02
21 -1 0 0 103 101  0.000000e+00  0.000000e+00  2.220485e+03  2.220485e+03 0.0 0.0 9.0
21 -1 0 0 101 102  0.000000e+00  0.000000e+00 -2.143954e+03  2.143954e+03 0.0 0.0 9.0
21  1 1 2 103 102 -1.083032e+03  7.348755e+02 -1.707746e+03  2.151603e+03 0.0 0.0 9.0
22  1 1 2   0   0  1.083032e+03 -7.348755e+02  1.784276e+03  2.212836e+03 0.0 0.0 9.0
#pdf 21 21 3.416130e-01 3.298391e-01 5000.0 2.163166e-02 2.499545e-02
</event>
<event>
4 6 1.0 5000.0 7.905138e-03 7.739137e-02
21 -1 0 0 103 101  0.000000e+00  0.000000e+00  1.774578e+03  1.774578e+03 0.0 0.0 9.0
21 -1 0 0 101 102  0.000000e+00  0.000000e+00 -3.521504e+03  3.521504e+03 0.0 0.0 9.0
21  1 1 2 103 102 -1.712366e+03  3.797109e+01  1.055351e+03  2.011817e+03 0.0 0.0 9.0
22  1 1 2   0   0  1.712366e+03 -3.797109e+01 -2.802277e+03  3.284265e+03 0.0 0.0 9.0
#pdf 21 21 2.730120e-01 5.417699e-01 5000.0 5.015375e-02 1.559391e-03
</event>
<event>
4 6 1.0 5000.0 7.905138e-03 7.739137e-02
21 -1 0 0 101 102  0.000000e+00  0.000000e+00  3.913136e+03  3.913136e+03 0.0 0.0 9.0
21 -1 0 0 103 101  0.000000e+00  0.000000e+00 -1.378359e+03  1.378359e+03 0.0 0.0 9.0
21  1 1 2 103 102  1.378926e+03  1.851130e+03  1.559144e+03  2.785507e+03 0.0 0.0 9.0
22  1 1 2   0   0 -1.378926e+03 -1.851130e+03  9.756335e+02  2.505989e+03 0.0 0.0 9.0
#pdf 21 21 6.020210e-01 2.120552e-01 5000.0 6.215227e-04 1.076722e-01
</event>
<event>
4 6 1.0 5000.0 7.905138e-03 7.739137e-02
21 -1 0 0 101 102  0.000000e+00  0.000000e+00  1.893222e+03  1.893222e+03 0.0 0.0 9.0
21 -1 0 0 103 101  0.000000e+00  0.000000e+00 -3.259918e+03  3.259918e+03 0.0 0.0 9.0
22  1 1 2   0   0 -2.412349e+03 -3.503110e+02 -1.863817e+02  2.444767e+03 0.0 0.0 9.0
21  1 1 2 103 102  2.412349e+03  3.503110e+02 -1.180315e+03  2.708374e+03 0.0 0.0 9.0
#pdf 21 21 2.912649e-01 5.015259e-01 5000.0 4.011969e-02 2.759381e-03
</event>
<event>
4 6 1.0 5000.0 7.905138e-03 7.739137e-02
21 -1 0 0 101 102  0.000000e+00  0.000000e+00  2.765161e+03  2.765161e+03 0.0 0.0 9.0
21 -1 0 0 103 101  0.000000e+00  0.000000e+00 -2.249394e+03  2.249394e+03 0.0 0.0 9.0
21  1 1 2 103 102  2.483524e+03 -2.275585e+02  2.741290e+02  2.508948e+03 0.0 0.0 9.0
22  1 1 2   0   0 -2.483524e+03  2.275585e+02  2.416379e+02  2.505606e+03 0.0 0.0 9.0
#pdf 21 21 4.254094e-01 3.460606e-01 5000.0 7.586170e-03 2.048680e-02
</event>
<event>
4 6 1.0 5000.0 7.905138e-03 7.739137e-02
21 -1 0 0 103 101  0.000000e+00  0.000000e+00  3.402454e+03  3.402454e+03 0.0 0.0 9.0
21 -1 0 0 101 102  0.000000e+00  0.000000e+00 -2.124631e+03  2.124631e+03 0.0 0.0 9.0
21  1 1 2 103 102  4.403816e+02  4.469760e+02 -2.048320e+03  2.142274e+03 0.0 0.0 9.0
22  1 1 2   0   0 -4.403816e+02 -4.469760e+02  3.326143e+03  3.384812e+03 0.0 0.0 9.0
#pdf 21 21 5.234545e-01 3.268663e-01 5000.0 2.030105e-03 2.592130e-02
</event>
<event>
4 6 1.0 5000.0 7.905138e-03 7.739137e-02
21 -1 0 0 101 102  0.000000e+00  0.000000e+00  3.537742e+03  3.537742e+03 0.0 0.0 9.0
21 -1 0 0 103 101  0.000000e+00  0.000000e+00 -1.796815e+03  1.796815e+03 0.0 0.0 9.0
22  1 1 2   0   0 -1.320216e+02  2.122305e+03  2.303570e+03  3.134971e+03 0.0 0.0 9.0
21  1 1 2 103 102  1.320216e+02 -2.122305e+03 -5.626429e+02  2.199585e+03 0.0 0.0 9.0
#pdf 21 21 5.442680e-01 2.764330e-01 5000.0 1.504017e-03 4.808952e-02
</event>
<event>
4 6 1.0 5000.0 7.905138e-03 7.739137e-02
21 -1 0 0 103 101  0.000000e+00  0.000000e+00  1.497527e+03  1.497527e+03 0.0 0.0 9.0
21 -1 0 0 101 102  0.000000e+00  0.000000e+00 -3.957540e+03  3.957540e+03 0.0 0.0 9.0
21  1 1 2 103 102  4.623498e+02 -1.691966e+03  6.614353e+02  1.874570e+03 0.0 0.0 9.0
22  1 1 2   0   0 -4.623498e+02  1.691966e+03 -3.121448e+03  3.580496e+03 0.0 0.0 9.0
#pdf 21 21 2.303887e-01 6.088522e-01 5000.0 8.522411e-02 5.565610e-04
</event>
<event>
4 6 1.0 5000.0 7.905138e-03 7.739137e-02
21 -1 0 0 103 101  0.000000e+00  0.000000e+00  1.931363e+03  1.931363e+03 0.0 0.0 9.0
21 -1 0 0 101 102  0.000000e+00  0.000000e+00 -2.620200e+03  2.620200e+03 0.0 0.0 9.0
21  1 1 2 103 102 -5.531099e+02  7.992982e+02 -2.396790e+03  2.586389e+03 0.0 0.0 9.0
22  1 1 2   0   0  5.531099e+02 -7.992982e+02  1.707953e+03  1.965175e+03 0.0 0.0 9.0
#pdf 21 21 2.971328e-01 4.031077e-01 5000.0 3.733492e-02 1.007750e-02
</event>
<event>
4 6 1.0 5000.0 7.905138e-03 7.739137e-02
21 -1 0 0 101 102  0.000000e+00  0.000000e+00  2.528625e+03  2.528625e+03 0.0 0.0 9.0
21 -1 0 0 103 101  0.000000e+00  0.000000e+00 -2.090065e+03  2.090065e+03 0.0 0.0 9.0
22  1 1 2   0   0  5.091036e+02 -1.890065e+03  1.430348e+03  2.424340e+03 0.0 0.0 9.0
21  1 1 2 103 102 -5.091036e+02  1.890065e+03 -9.917878e+02  2.194350e+03 0.0 0.0 9.0
#pdf 21 21 3.890193e-01 3.215485e-01 5000.0 1.203129e-02 2.766330e-02
</event>
<event>
4 6 1.0 5000.0 7.905138e-03 7.739137e-02
21 -1 0 0 101 102  0.000000e+00  0.000000e+00  1.550748e+03  1.550748e+03 0.0 0.0 9.0
21 -1 0 0 103 101  0.000000e+00  0.000000e+00 -4.115905e+03  4.115905e+03 0.0 0.0 9.0
22  1 1 2   0   0  2.513864e+03  2.508797e+02 -1.263823e+03  2.824837e+03 0.0 0.0 9.0
21  1 1 2 103 102 -2.513864e+03 -2.508797e+02 -1.301333e+03  2.841816e+03 0.0 0.0 9.0
#pdf 21 21 2.385767e-01 6.332161e-01 5000.0 7.697395e-02 3.707561e-04
</event>
<event>
4 6 1.0 5000.0 7.905138e-03 7.739137e-02
21 -1 0 0 101 102  0.000000e+00  0.000000e+00  2.888414e+03  2.888414e+03 0.0 0.0 9.0
21 -1 0 0 103 101  0.000000e+00  0.000000e+00 -1.855510e+03  1.855510e+03 0.0 0.0 9.0
22  1 1 2   0   0 -7.230160e+02  2.054676e+03  1.319971e+03  2.546914e+03 0.0 0.0 9.0
21  1 1 2 103 102  7.230160e+02 -2.054676e+03 -2.870677e+02  2.197010e+03 0.0 0.0 9.0
#pdf 21 21 4.443713e-01 2.854631e-01 5000.0 5.937892e-03 4.304114e-02
</event>
<event>
4 6 1.0 5000.0 7.905138e-03 7.739137e-02
21 -1 0 0 103 101  0.000000e+00  0.000000e+00  2.518765e+03  2.518765e+03 0.0 0.0 9.0
21 -1 0 0 101 102  0.000000e+00  0.000000e+00 -2.508410e+03  2.508410e+03 0.0 0.0 9.0
22  1 1 2   0   0  2.276189e+03 -6.000235e+02  8.866738e+02  2.515403e+03 0.0 0.0 9.0
21  1 1 2 103 102 -2.276189e+03  6.000235e+02 -8.763192e+02  2.511772e+03 0.0 0.0 9.0
#pdf 21 21 3.875023e-01 3.859093e-01 5000.0 1.226371e-02 1.251259e-02
</event>
<event>
4 6 1.0 5000.0 7.905138e-03 7.739137e-02
21 -1 0 0 103 101  0.000000e+00  0.000000e+00  3.679394e+03  3.679394e+03 0.0 0.0 9.0
21 -1 0 0 101 102  0.000000e+00  0.000000e+00 -1.756010e+03  1.756010e+03 0.0 0.0 9.0
21  1 1 2 103 102 -9.773676e+02  1.635898e+03 -8.368304e+02  2.081273e+03 0.0 0.0 9.0
22  1 1 2   0   0  9.773676e+02 -1.635898e+03  2.760214e+03  3.354131e+03 0.0 0.0 9.0
#pdf 21 21 5.660605e-01 2.701553e-01 5000.0 1.088770e-03 5.194613e-02
</event>
<event>
4 6 1.0 5000.0 7.905138e-03 7.739137e-02
21 -1 0 0 101 102  0.000000e+00  0.000000e+00  3.000082e+03  3.000082e+03 0.0 0.0 9.0
21 -1 0 0 103 101  0.000000e+00  0.000000e+00 -2.067073e+03  2.067073e+03 0.0 0.0 9.0
22  1 1 2   0   0 -2.380388e+03  3.637132e+02 -1.792476e+02  2.414676e+03 0.0 0.0 9.0
21  1 1 2 103 102  2.380388e+03 -3.637132e+02  1.112257e+03  2.652479e+03 0.0 0.0 9.0
#pdf 21 21 4.615512e-01 3.180113e-01 5000.0 4.736732e-03 2.888884e-02
</event>
<event>
4 6 1.0 5000.0 7.905138e-03 7.739137e-02
21 -1 0 0 101 102  0.000000e+00  0.000000e+00  2.740702e+03  2.740702e+03 0.0 0.0 9.0
21 -1 0 0 103 101  0.000000e+00  0.000000e+00 -2.317680e+03  2.317680e+03 0.0 0.0 9.0
22  1 1 2   0   0  1.866610e+03 -1.290554e+03 -8.888428e+02  2.437171e+03 0.0 0.0 9.0
21  1 1 2 103 102 -1.866610e+03  1.290554e+03  1.311864e+03  2.621211e+03 0.0 0.0 9.0
#pdf 21 21 4.216464e-01 3.565662e-01 5000.0 7.961172e-03 1.799149e-02
</event>
<event>
4 6 1.0 5000.0 7.905138e-03 7.739137e-02
21 -1 0 0 101 102  0.000000e+00  0.000000e+00  2.502884e+03  2.502884e+03 0.0 0.0 9.0
21 -1 0 0 103 101  0.000000e+00  0.000000e+00 -2.431241e+03  2.431241e+03 0.0 0.0 9.0
22  1 1 2   0   0 -1.855693e+03  1.625319e+02  1.653119e+03  2.490545e+03 0.0 0.0 9.0
21  1 1 2 103 102  1.855693e+03 -1.625319e+02 -1.581477e+03  2.443579e+03 0.0 0.0 9.0
#pdf 21 21 3.850590e-01 3.740371e-01 5000.0 1.264739e-02 1.450352e-02
</event>
<event>
4 6 1.0 5000.0 7.905138e-03 7.739137e-02
21 -1 0 0 101 102  0.000000e+00  0.000000e+00  2.433692e+03  2.433692e+03 0.0 0.0 9.0
21 -1 0 0 103 101  0.000000e+00  0.000000e+00 -1.830492e+03  1.830492e+03 0.0 0.0 9.0
21  1 1 2 103 102 -8.054140e+01 -1.343130e+03  1.944270e+03  2.364460e+03 0.0 0.0 9.0
22  1 1 2   0   0  8.054140e+01  1.343130e+03 -1.341070e+03  1.899725e+03 0.0 0.0 9.0
#pdf 21 21 3.744141e-01 2.816142e-01 5000.0 1.443709e-02 4.511765e-02
</event>
<event>
4 6 1.0 5000.0 7.905138e-03 7.739137e-02
21 -1 0 0 101 102  0.000000e+00  0.000000e+00  1.894765e+03  1.894765e+03 0.0 0.0 9.0
21 -1 0 0 103 101  0.000000e+00  0.000000e+00 -2.729378e+03  2.729378e+03 0.0 0.0 9.0
21  1 1 2 103 102 -1.182736e+03  1.512052e+03  8.222161e+02  2.088350e+03 0.0 0.0 9.0
22  1 1 2   0   0  1.182736e+03 -1.512052e+03 -1.656829e+03  2.535794e+03 0.0 0.0 9.0
#pdf 21 21 2.915023e-01 4.199043e-01 5000.0 4.000432e-02 8.140224e-03
</event>
<event>
4 6 1.0 5000.0 7.905138e-03 7.739137e-02
21 -1 0 0 101 102  0.000000e+00  0.000000e+00  5.102745e+03  5.102745e+03 0.0 0.0 9.0
21 -1 0 0 103 101  0.000000e+00  0.000000e+00 -1.233347e+03  1.233347e+03 0.0 0.0 9.0
21  1 1 2 103 102  1.600525e+03 -1.680333e+03  7.311868e+02  2.433071e+03 0.0 0.0 9.0
22  1 1 2   0   0 -1.600525e+03  1.680333e+03  3.138211e+03  3.903020e+03 0.0 0.0 9.0
#pdf 21 21 7.850376e-01 1.897456e-01 5000.0 1.540680e-05 1.439788e-01
</event>
<event>
4 6 1.0 5000.0 7.905138e-03 7.739137e-02
21 -1 0 0 103 101  0.000000e+00  0.000000e+00  2.204291e+03  2.204291e+03 0.0 0.0 9.0
21 -1 0 0 101 102  0.000000e+00  0.000000e+00 -2.787169e+03  2.787169e+03 0.0 0.0 9.0
21  1 1 2 103 102  9.070915e+02 -7.468527e+01  2.029945e+03  2.224651e+03 0.0 0.0 9.0
22  1 1 2   0   0 -9.070915e+02  7.468527e+01 -2.612823e+03  2.766810e+03 0.0 0.0 9.0
#pdf 21 21 3.391217e-01 4.287952e-01 5000.0 2.230162e-02 7.262333e-03
</event>
<event>
4 6 1.0 5000.0 7.905138e-03 7.739137e-02
21 -1 0 0 101 102  0.000000e+00  0.000000e+00  2.720427e+03  2.720427e+03 0.0 0.0 9.0
21 -1 0 0 103 101  0.000000e+00  0.000000e+00 -2.446803e+03  2.446803e+03 0.0 0.0 9.0
21  1 1 2 103 102  2.049315e+03  4.234099e+02 -1.374408e+03  2.503591e+03 0.0 0.0 9.0
22  1 1 2   0   0 -2.049315e+03 -4.234099e+02  1.648031e+03  2.663640e+03 0.0 0.0 9.0
#pdf 21 21 4.185272e-01 3.764313e-01 5000.0 8.284368e-03 1.408485e-02
</event>
<event>
4 6 1.0 5000.0 7.905138e-03 7.739137e-02
21 -1 0 0 103 101  0.000000e+00  0.000000e+00  3.508610e+03  3.508610e+03 0.0 0.0 9.0
21 -1 0 0 101 102  0.000000e+00  0.000000e+00 -1.763535e+03  1.763535e+03 0.0 0.0 9.0
21  1 1 2 103 102 -1.016163e+03  1.205423e+03 -1.166435e+03  1.961174e+03 0.0 0.0 9.0
22  1 1 2   0   0  1.016163e+03 -1.205423e+03  2.911511e+03  3.310971e+03 0.0 0.0 9.0
#pdf 21 21 5.397861e-01 2.713130e-01 5000.0 1.604742e-03 5.121189e-02
</event>
<event>
4 6 1.0 5000.0 7.905138e-03 7.739137e-02
21 -1 0 0 101 102  0.000000e+00  0.000000e+00  2.912886e+03  2.912886e+03 0.0 0.0 9.0
21 -1 0 0 103 101  0.000000e+00  0.000000e+00 -2.086835e+03  2.086835e+03 0.0 0.0 9.0
22  1 1 2   0   0 -6.376377e+02 -4.729255e+02 -1.953697e+03  2.108832e+03 0.0 0.0 9.0
21  1 1 2 103 102  6.376377e+02  4.729255e+02  2.779748e+03  2.890889e+03 0.0 0.0 9.0
#pdf 21 21 4.481364e-01 3.210516e-01 5000.0 5.650447e-03 2.783210e-02
</event>
<event>
4 6 1.0 5000.0 7.905138e-03 7.739137e-02
21 -1 0 0 101 102  0.000000e+00  0.000000e+00  3.126020e+03  3.126020e+03 0.0 0.0 9.0
21 -1 0 0 103 101  0.000000e+00  0.000000e+00 -2.358853e+03  2.358853e+03 0.0 0.0 9.0
21  1 1 2 103 102 -1.032702e+03 -6.121802e+02 -2.076286e+03  2.398375e+03 0.0 0.0 9.0
22  1 1 2   0   0  1.032702e+03  6.121802e+02  2.843453e+03  3.086497e+03 0.0 0.0 9.0
#pdf 21 21 4.809261e-01 3.629004e-01 5000.0 3.656149e-03 1.664632e-02
</event>
<event>
4 6 1.0 5000.0 7.905138e-03 7.739137e-02
21 -1 0 0 101 102  0.000000e+00  0.000000e+00  2.905266e+03  2.905266e+03 0.0 0.0 9.0
21 -1 0 0 103 101  0.000000e+00  0.000000e+00 -2.041384e+03  2.041384e+03 0.0 0.0 9.0
21  1 1 2 103 102 -1.034516e+03 -6.488474e+02 -1.707965e+03  2.099612e+03 0.0 0.0 9.0
22  1 1 2   0   0  1.034516e+03  6.488474e+02  2.571847e+03  2.847037e+03 0.0 0.0 9.0
#pdf 21 21 4.469639e-01 3.140591e-01 5000.0 5.736506e-03 3.033263e-02
</event>
<event>
4 6 1.0 5000.0 7.905138e-03 7.739137e-02
21 -1 0 0 101 102  0.000000e+00  0.000000e+00  2.488194e+03  2.488194e+03 0.0 0.0 9.0
21 -1 0 0 103 101  0.000000e+00  0.000000e+00 -2.630714e+03  2.630714e+03 0.0 0.0 9.0
22  1 1 2   0   0  2.500689e+03  5.316475e+02 -1.694460e+02  2.562188e+03 0.0 0.0 9.0
21  1 1 2 103 102 -2.500689e+03 -5.316475e+02  2.692651e+01  2.556720e+03 0.0 0.0 9.0
#pdf 21 21 3.827991e-01 4.047252e-01 5000.0 1.301203e-02 9.873728e-03
</event>
<event>
4 6 1.0 5000.0 7.905138e-03 7.739137e-02
21 -1 0 0 103 101  0.000000e+00  0.000000e+00  2.867352e+03  2.867352e+03 0.0 0.0 9.0
21 -1 0 0 101 102  0.000000e+00  0.000000e+00 -2.186864e+03  2.186864e+03 0.0 0.0 9.0
21  1 1 2 103 102 -2.287422e+03 -4.704650e+02 -5.718703e+02  2.404303e+03 0.0 0.0 9.0
22  1 1 2   0   0  2.287422e+03  4.704650e+02  1.252358e+03  2.649913e+03 0.0 0.0 9.0
#pdf 21 21 4.411310e-01 3.364406e-01 5000.0 6.198421e-03 2.304871e-02
</event>
<event>
4 6 1.0 5000.0 7.905138e-03 7.739137e-02
21 -1 0 0 101 102  0.000000e+00  0.000000e+00  2.558617e+03  2.558617e+03 0.0 0.0 9.0
21 -1 0 0 103 101  0.000000e+00  0.000000e+00 -2.101687e+03  2.101687e+03 0.0 0.0 9.0
22  1 1 2   0   0 -1.695298e+03 -8.140617e+02  1.591751e+03  2.463818e+03 0.0 0.0 9.0
21  1 1 2 103 102  1.695298e+03  8.140617e+02 -1.134821e+03  2.196486e+03 0.0 0.0 9.0
#pdf 21 21 3.936333e-01 3.233365e-01 5000.0 1.135264e-02 2.706466e-02
</event>
<event>
4 6 1.0 5000.0 7.905138e-03 7.739137e-02
21 -1 0 0 101 102  0.000000e+00  0.000000e+00  1.572726e+03  1.572726e+03 0.0 0.0 9.0
21 -1 0 0 103 101  0.000000e+00  0.000000e+00 -4.015560e+03  4.015560e+03 0.0 0.0 9.0
21  1 1 2 103 102 -2.751055e+02  1.025628e+03  1.311026e+03  1.687124e+03 0.0 0.0 9.0
22  1 1 2   0   0  2.751055e+02 -1.025628e+03 -3.753861e+03  3.901162e+03 0.0 0.0 9.0
#pdf 21 21 2.419578e-01 6.177785e-01 5000.0 7.377613e-02 4.807441e-04
</event>
<event>
4 6 1.0 5000.0 7.905138e-03 7.739137e-02
21 -1 0 0 103 101  0.000000e+00  0.000000e+00  2.051426e+03  2.051426e+03 0.0 0.0 9.0
21 -1 0 0 101 102  0.000000e+00  0.000000e+00 -2.954158e+03  2.954158e+03 0.0 0.0 9.0
21  1 1 2 103 102  2.324783e+03 -3.147756e+02 -1.209814e+03  2.639574e+03 0.0 0.0 9.0
22  1 1 2   0   0 -2.324783e+03  3.147756e+02  3.070827e+02  2.366010e+03 0.0 0.0 9.0
#pdf 21 21 3.156040e-01 4.544858e-01 5000.0 2.975834e-02 5.203422e-03
</event>
<event>
4 6 1.0 5000.0 7.905138e-03 7.739137e-02
21 -1 0 0 101 102  0.000000e+00  0.000000e+00  2.052803e+03  2.052803e+03 0.0 0.0 9.0
21 -1 0 0 103 101  0.000000e+00  0.000000e+00 -3.130151e+03  3.130151e+03 0.0 0.0 9.0
22  1 1 2   0   0 -2.333680e+03  9.250867e+02 -8.982893e+02  2.666228e+03 0.0 0.0 9.0
21  1 1 2 103 102  2.333680e+03 -9.250867e+02 -1.790591e+02  2.516726e+03 0.0 0.0 9.0
#pdf 21 21 3.158158e-01 4.815617e-01 5000.0 2.968056e-02 3.624724e-03
</event>
<event>
4 6 1.0 5000.0 7.905138e-03 7.739137e-02
21 -1 0 0 103 101  0.000000e+00  0.000000e+00  2.260049e+03  2.260049e+03 0.0 0.0 9.0
21 -1 0 0 101 102  0.000000e+00  0.000000e+00 -2.605434e+03  2.605434e+03 0.0 0.0 9.0
22  1 1 2   0   0  7.179436e+02  3.766439e+02  2.120253e+03  2.269973e+03 0.0 0.0 9.0
21  1 1 2 103 102 -7.179436e+02 -3.766439e+02 -2.465638e+03  2.595510e+03 0.0 0.0 9.0
#pdf 21 21 3.476999e-01 4.008360e-01 5000.0 2.007951e-02 1.037013e-02
</event>
<event>
4 6 1.0 5000.0 7.905138e-03 7.739137e-02
21 -1 0 0 101 102  0.000000e+00  0.000000e+00  3.651471e+03  3.651471e+03 0.0 0.0 9.0
21 -1 0 0 103 101  0.000000e+00  0.000000e+00 -1.836549e+03  1.836549e+03 0.0 0.0 9.0
21  1 1 2 103 102 -3.360655e+02 -1.100273e+03 -1.550897e+03  1.931015e+03 0.0 0.0 9.0
22  1 1 2   0   0  3.360655e+02  1.100273e+03  3.365819e+03  3.557004e+03 0.0 0.0 9.0
#pdf 21 21 5.617648e-01 2.825459e-01 5000.0 1.162157e-03 4.460281e-02
</event>
<event>
4 6 1.0 5000.0 7.905138e-03 7.739137e-02
21 -1 0 0 103 101  0.000000e+00  0.000000e+00  2.185164e+03  2.185164e+03 0.0 0.0 9.0
21 -1 0 0 101 102  0.000000e+00  0.000000e+00 -2.789272e+03  2.789272e+03 0.0 0.0 9.0
21  1 1 2 103 102 -1.674582e+02  1.306374e+03 -2.405773e+03  2.742699e+03 0.0 0.0 9.0
22  1 1 2   0   0  1.674582e+02 -1.306374e+03  1.801665e+03  2.231737e+03 0.0 0.0 9.0
#pdf 21 21 3.361791e-01 4.291187e-01 5000.0 2.312311e-02 7.232240e-03
</event>
<event>
4 6 1.0 5000.0 7.905138e-03 7.739137e-02
21 -1 0 0 103 101  0.000000e+00  0.000000e+00  3.079364e+03  3.079364e+03 0.0 0.0 9.0
21 -1 0 0 101 102  0.000000e+00  0.000000e+00 -1.735394e+03  1.735394e+03 0.0 0.0 9.0
21  1 1 2 103 102 -2.250911e+03  5.239681e+02  6.172092e+02  2.392089e+03 0.0 0.0 9.0
22  1 1 2   0   0  2.250911e+03 -5.239681e+02  7.267613e+02  2.422669e+03 0.0 0.0 9.0
#pdf 21 21 4.737483e-01 2.669836e-01 5000.0 4.027831e-03 5.401561e-02
</event>
<event>
4 6 1.0 5000.0 7.905138e-03 7.739137e-02
21 -1 0 0 103 101  0.000000e+00  0.000000e+00  2.070396e+03  2.070396e+03 0.0 0.0 9.0
21 -1 0 0 101 102  0.000000e+00  0.000000e+00 -2.740011e+03  2.740011e+03 0.0 0.0 9.0
21  1 1 2 103 102 -1.572508e+03 -8.921994e+02 -1.900570e+03  2.623159e+03 0.0 0.0 9.0
22  1 1 2   0   0  1.572508e+03  8.921994e+02  1.230955e+03  2.187247e+03 0.0 0.0 9.0
#pdf 21 21 3.185224e-01 4.215401e-01 5000.0 2.870823e-02 7.971998e-03
</event>
<event>
4 6 1.0 5000.0 7.905138e-03 7.739137e-02
21 -1 0 0 103 101  0.000000e+00  0.000000e+00  1.777841e+03  1.777841e+03 0.0 0.0 9.0
21 -1 0 0 101 102  0.000000e+00  0.000000e+00 -2.860378e+03  2.860378e+03 0.0 0.0 9.0
22  1 1 2   0   0 -1.479355e+03  9.077907e+02 -2.021854e+03  2.664671e+03 0.0 0.0 9.0
21  1 1 2 103 102  1.479355e+03 -9.077907e+02  9.393169e+02  1.973548e+03 0.0 0.0 9.0
#pdf 21 21 2.735139e-01 4.400581e-01 5000.0 4.984543e-02 6.285800e-03
</event>
<event>
4 6 1.0 5000.0 7.905138e-03 7.739137e-02
21 -1 0 0 101 102  0.000000e+00  0.000000e+00  1.957958e+03  1.957958e+03 0.0 0.0 9.0
21 -1 0 0 103 101  0.000000e+00  0.000000e+00 -3.136384e+03  3.136384e+03 0.0 0.0 9.0
21  1 1 2 103 102 -4.126824e+02  2.293694e+03 -1.455056e+03  2.747458e+03 0.0 0.0 9.0
22  1 1 2   0   0  4.126824e+02 -2.293694e+03  2.766304e+02  2.346884e+03 0.0 0.0 9.0
#pdf 21 21 3.012243e-01 4.825206e-01 5000.0 3.548441e-02 3.577833e-03
</event>
<event>
4 6 1.0 5000.0 7.905138e-03 7.739137e-02
21 -1 0 0 103 101  0.000000e+00  0.000000e+00  1.545405e+03  1.545405e+03 0.0 0.0 9.0
21 -1 0 0 101 102  0.000000e+00  0.000000e+00 -4.114384e+03  4.114384e+03 0.0 0.0 9.0
22  1 1 2   0   0 -1.050229e+03  1.823752e+03  2.743474e+02  2.122338e+03 0.0 0.0 9.0
21  1 1 2 103 102  1.050229e+03 -1.823752e+03 -2.843327e+03  3.537451e+03 0.0 0.0 9.0
#pdf 21 21 2.377545e-01 6.329822e-01 5000.0 7.776591e-02 3.722368e-04
</event>
<event>
4 6 1.0 5000.0 7.905138e-03 7.739137e-02
21 -1 0 0 103 101  0.000000e+00  0.000000e+00  1.977958e+03  1.977958e+03 0.0 0.0 9.0
21 -1 0 0 101 102  0.000000e+00  0.000000e+00 -3.227307e+03  3.227307e+03 0.0 0.0 9.0
21  1 1 2 103 102 -1.793911e+03  9.140250e+02  9.476951e+02  2.225238e+03 0.0 0.0 9.0
22  1 1 2   0   0  1.793911e+03 -9.140250e+02 -2.197044e+03  2.980027e+03 0.0 0.0 9.0
#pdf 21 21 3.043013e-01 4.965088e-01 5000.0 3.420033e-02 2.957542e-03
</event>
<event>
4 6 1.0 5000.0 7.905138e-03 7.739137e-02
21 -1 0 0 101 102  0.000000e+00  0.000000e+00  2.360025e+03  2.360025e+03 0.0 0.0 9.0
21 -1 0 0 103 101  0.000000e+00  0.000000e+00 -2.649894e+03  2.649894e+03 0.0 0.0 9.0
22  1 1 2   0   0  1.338320e+03 -1.944367e+03 -9.722474e+02  2.552827e+03 0.0 0.0 9.0
21  1 1 2 103 102 -1.338320e+03  1.944367e+03  6.823779e+02  2.457092e+03 0.0 0.0 9.0
#pdf 21 21 3.630808e-01 4.076761e-01 5000.0 1.660947e-02 9.511171e-03
</event>
<event>
4 6 1.0 5000.0 7.905138e-03 7.739137e-02
21 -1 0 0 103 101  0.000000e+00  0.000000e+00  1.536319e+03  1.536319e+03 0.0 0.0 9.0
21 -1 0 0 101 102  0.000000e+00  0.000000e+00 -3.462661e+03  3.462661e+03 0.0 0.0 9.0
21  1 1 2 103 102 -8.306511e+02 -1.670681e+03 -2.432601e+03  3.065730e+03 0.0 0.0 9.0
22  1 1 2   0   0  8.306511e+02  1.670681e+03  5.062581e+02  1.933249e+03 0.0 0.0 9.0
#pdf 21 21 2.363567e-01 5.327171e-01 5000.0 7.912804e-02 1.779186e-03
</event>
<event>
4 6 1.0 5000.0 7.905138e-03 7.739137e-02
21 -1 0 0 103 101  0.000000e+00  0.000000e+00  3.324619e+03  3.324619e+03 0.0 0.0 9.0
21 -1 0 0 101 102  0.000000e+00  0.000000e+00 -1.869010e+03  1.869010e+03 0.0 0.0 9.0
21  1 1 2 103 102 -1.817726e+03 -9.131390e+02  2.228721e+03  3.017474e+03 0.0 0.0 9.0
22  1 1 2   0   0  1.817726e+03  9.131390e+02 -7.731111e+02  2.176155e+03 0.0 0.0 9.0
#pdf 21 21 5.114799e-01 2.875400e-01 5000.0 2.403376e-03 4.197040e-02
</event>
<event>
4 6 1.0 5000.0 7.905138e-03 7.739137e-02
21 -1 0 0 101 102  0.000000e+00  0.000000e+00  2.143044e+03  2.143044e+03 0.0 0.0 9.0
21 -1 0 0 103 101  0.000000e+00  0.000000e+00 -3.060164e+03  3.060164e+03 0.0 0.0 9.0
21  1 1 2 103 102 -1.408471e+03  1.831502e+03  6.634869e+02  2.403832e+03 0.0 0.0 9.0
22  1 1 2   0   0  1.408471e+03 -1.831502e+03 -1.580607e+03  2.799377e+03 0.0 0.0 9.0
#pdf 21 21 3.296991e-01 4.707945e-01 5000.0 2.503833e-02 4.190155e-03
</event>
<event>
4 6 1.0 5000.0 7.905138e-03 7.739137e-02
21 -1 0 0 101 102  0.000000e+00  0.000000e+00  2.562961e+03  2.562961e+03 0.0 0.0 9.0
21 -1 0 0 103 101  0.000000e+00  0.000000e+00 -2.425508e+03  2.425508e+03 0.0 0.0 9.0
21  1 1 2 103 102 -1.486461e+03  1.998063e+03 -5.240173e+01  2.490897e+03 0.0 0.0 9.0
22  1 1 2   0   0  1.486461e+03 -1.998063e+03  1.898539e+02  2.497572e+03 0.0 0.0 9.0
#pdf 21 21 3.943016e-01 3.731551e-01 5000.0 1.125772e-02 1.465959e-02
</event>
<event>
4 6 1.0 5000.0 7.905138e-03 7.739137e-02
21 -1 0 0 101 102  0.000000e+00  0.000000e+00  2.129937e+03  2.129937e+03 0.0 0.0 9.0
21 -1 0 0 103 101  0.000000e+00  0.000000e+00 -2.903219e+03  2.903219e+03 0.0 0.0 9.0
22  1 1 2   0   0 -9.563988e+02 -1.276400e+03  1.544103e+03  2.219943e+03 0.0 0.0 9.0
21  1 1 2 103 102  9.563988e+02  1.276400e+03 -2.317384e+03  2.813212e+03 0.0 0.0 9.0
#pdf 21 21 3.276827e-01 4.466490e-01 5000.0 2.566379e-02 5.760093e-03
</event>
<event>
4 6 1.0 5000.0 7.905138e-03 7.739137e-02
21 -1 0 0 103 101  0.000000e+00  0.000000e+00  2.935274e+03  2.935274e+03 0.0 0.0 9.0
21 -1 0 0 101 102  0.000000e+00  0.000000e+00 -2.095920e+03  2.095920e+03 0.0 0.0 9.0
22  1 1 2   0   0  9.536707e+02  1.914279e+03  1.693776e+03  2.728155e+03 0.0 0.0 9.0
21  1 1 2 103 102 -9.536707e+02 -1.914279e+03 -8.544223e+02  2.303039e+03 0.0 0.0 9.0
#pdf 21 21 4.515806e-01 3.224493e-01 5000.0 5.405561e-03 2.736003e-02
</event>
<event>
4 6 1.0 5000.0 7.905138e-03 7.739137e-02
21 -1 0 0 101 102  0.000000e+00  0.000000e+00  3.294551e+03  3.294551e+03 0.0 0.0 9.0
21 -1 0 0 103 101  0.000000e+00  0.000000e+00 -1.905511e+03  1.905511e+03 0.0 0.0 9.0
22  1 1 2   0   0  2.060918e+03 -1.294102e+03  1.313434e+03  2.765356e+03 0.0 0.0 9.0
21  1 1 2 103 102 -2.060918e+03  1.294102e+03  7.560608e+01  2.434707e+03 0.0 0.0 9.0
#pdf 21 21 5.068540e-01 2.931556e-01 5000.0 2.563019e-03 3.920814e-02
</event>
<event>
4 6 1.0 5000.0 7.905138e-03 7.739137e-02
21 -1 0 0 101 102  0.000000e+00  0.000000e+00  1.312731e+03  1.312731e+03 0.0 0.0 9.0
21 -1 0 0 103 101  0.000000e+00  0.000000e+00 -3.845103e+03  3.845103e+03 0.0 0.0 9.0
22  1 1 2   0   0  9.506619e+02  1.926608e+03 -5.117164e+02  2.208491e+03 0.0 0.0 9.0
21  1 1 2 103 102 -9.506619e+02 -1.926608e+03 -2.020656e+03  2.949344e+03 0.0 0.0 9.0
#pdf 21 21 2.019586e-01 5.915544e-01 5000.0 1.226297e-01 7.337876e-04
</event>
<event>
4 6 1.0 5000.0 7.905138e-03 7.739137e-02
21 -1 0 0 103 101  0.000000e+00  0.000000e+00  1.959669e+03  1.959669e+03 0.0 0.0 9.0
21 -1 0 0 101 102  0.000000e+00  0.000000e+00 -3.030331e+03  3.030331e+03 0.0 0.0 9.0
21  1 1 2 103 102 -5.849159e+02  9.792008e+02 -2.740163e+03  2.968072e+03 0.0 0.0 9.0
22  1 1 2   0   0  5.849159e+02 -9.792008e+02  1.669500e+03  2.021928e+03 0.0 0.0 9.0
#pdf 21 21 3.014875e-01 4.662048e-01 5000.0 3.537374e-02 4.453867e-03
</event>
<event>
4 6 1.0 5000.0 7.905138e-03 7.739137e-02
21 -1 0 0 101 102  0.000000e+00  0.000000e+00  1.824402e+03  1.824402e+03 0.0 0.0 9.0
21 -1 0 0 103 101  0.000000e+00  0.000000e+00 -3.053986e+03  3.053986e+03 0.0 0.0 9.0
21  1 1 2 103 102 -1.459443e+03  1.280751e+03  7.721481e+02  2.089619e+03 0.0 0.0 9.0
22  1 1 2   0   0  1.459443e+03 -1.280751e+03 -2.001733e+03  2.788769e+03 0.0 0.0 9.0
#pdf 21 21 2.806772e-01 4.698441e-01 5000.0 4.564225e-02 4.243599e-03
</event>
<event>
4 6 1.0 5000.0 7.905138e-03 7.739137e-02
21 -1 0 0 101 102  0.000000e+00  0.000000e+00  1.942634e+03  1.942634e+03 0.0 0.0 9.0
21 -1 0 0 103 101  0.000000e+00  0.000000e+00 -3.305834e+03  3.305834e+03 0.0 0.0 9.0
21  1 1 2 103 102 -2.188718e+01 -1.202977e+03 -2.991199e+03  3.224113e+03 0.0 0.0 9.0
22  1 1 2   0   0  2.188718e+01  1.202977e+03  1.627999e+03  2.024355e+03 0.0 0.0 9.0
#pdf 21 21 2.988667e-01 5.085899e-01 5000.0 3.653177e-02 2.502012e-03
</event>
<event>
4 6 1.0 5000.0 7.905138e-03 7.739137e-02
21 -1 0 0 101 102  0.000000e+00  0.000000e+00  3.571682e+03  3.571682e+03 0.0 0.0 9.0
21 -1 0 0 103 101  0.000000e+00  0.000000e+00 -1.563730e+03  1.563730e+03 0.0 0.0 9.0
22  1 1 2   0   0  2.205155e+02 -1.307184e+03  3.129677e+03  3.398857e+03 0.0 0.0 9.0
21  1 1 2 103 102 -2.205155e+02  1.307184e+03 -1.121724e+03  1.736555e+03 0.0 0.0 9.0
#pdf 21 21 5.494896e-01 2.405738e-01 5000.0 1.392228e-03 7.507472e-02
</event>
<event>
4 6 1.0 5000.0 7.905138e-03 7.739137e-02
21 -1 0 0 101 102  0.000000e+00  0.000000e+00  2.988229e+03  2.988229e+03 0.0 0.0 9.0
21 -1 0 0 103 101  0.000000e+00  0.000000e+00 -2.052863e+03  2.052863e+03 0.0 0.0 9.0
21  1 1 2 103 102 -1.273870e+02  1.395304e+03 -1.610791e+03  2.134889e+03 0.0 0.0 9.0
22  1 1 2   0   0  1.273870e+02 -1.395304e+03  2.546158e+03  2.906204e+03 0.0 0.0 9.0
#pdf 21 21 4.597276e-01 3.158251e-01 5000.0 4.853095e-03 2.967719e-02
</event>
<event>
4 6 1.0 5000.0 7.905138e-03 7.739137e-02
21 -1 0 0 101 102  0.000000e+00  0.000000e+00  2.944870e+03  2.944870e+03 0.0 0.0 9.0
21 -1 0 0 103 101  0.000000e+00  0.000000e+00 -1.750594e+03  1.750594e+03 0.0 0.0 9.0
22  1 1 2   0   0 -1.168241e+03  5.245257e+02 -1.341549e+03  1.854634e+03 0.0 0.0 9.0
21  1 1 2 103 102  1.168241e+03 -5.245257e+02  2.535824e+03  2.840830e+03 0.0 0.0 9.0
#pdf 21 21 4.530569e-01 2.693222e-01 5000.0 5.302267e-03 5.248138e-02
</event>
<event>
4 6 1.0 5000.0 7.905138e-03 7.739137e-02
21 -1 0 0 103 101  0.000000e+00  0.000000e+00  3.104881e+03  3.104881e+03 0.0 0.0 9.0
21 -1 0 0 101 102  0.000000e+00  0.000000e+00 -1.423993e+03  1.423993e+03 0.0 0.0 9.0
22  1 1 2   0   0  1.850224e+03 -9.921108e+02  9.665631e+02  2.311246e+03 0.0 0.0 9.0
21  1 1 2 103 102 -1.850224e+03  9.921108e+02  7.143250e+02  2.217628e+03 0.0 0.0 9.0
#pdf 21 21 4.776740e-01 2.190758e-01 5000.0 3.820662e-03 9.843524e-02
</event>
<event>
4 6 1.0 5000.0 7.905138e-03 7.739137e-02
21 -1 0 0 103 101  0.000000e+00  0.000000e+00  2.138385e+03  2.138385e+03 0.0 0.0 9.0
21 -1 0 0 101 102  0.000000e+00  0.000000e+00 -3.105966e+03  3.105966e+03 0.0 0.0 9.0
22  1 1 2   0   0 -9.893788e+02 -8.636387e+02 -2.739957e+03  3.038438e+03 0.0 0.0 9.0
21  1 1 2 103 102  9.893788e+02  8.636387e+02  1.772375e+03  2.205914e+03 0.0 0.0 9.0
#pdf 21 21 3.289824e-01 4.778410e-01 5000.0 2.525895e-02 3.812059e-03
</event>
<event>
4 6 1.0 5000.0 7.905138e-03 7.739137e-02
21 -1 0 0 101 102  0.000000e+00  0.000000e+00  1.601060e+03  1.601060e+03 0.0 0.0 9.0
21 -1 0 0 103 101  0.000000e+00  0.000000e+00 -3.388807e+03  3.388807e+03 0.0 0.0 9.0
22  1 1 2   0   0 -5.465541e+02  5.953857e+02  1.446061e+03  1.656592e+03 0.0 0.0 9.0
21  1 1 2 103 102  5.465541e+02 -5.953857e+02 -3.233808e+03  3.333274e+03 0.0 0.0 9.0
#pdf 21 21 2.463169e-01 5.213549e-01 5000.0 6.979765e-02 2.091208e-03
</event>
<event>
4 6 1.0 5000.0 7.905138e-03 7.739137e-02
21 -1 0 0 101 102  0.000000e+00  0.000000e+00  2.580495e+03  2.580495e+03 0.0 0.0 9.0
21 -1 0 0 103 101  0.000000e+00  0.000000e+00 -2.403560e+03  2.403560e+03 0.0 0.0 9.0
21  1 1 2 103 102  1.211301e+03  1.993232e+03  9.620320e+02  2.523039e+03 0.0 0.0 9.0
22  1 1 2   0   0 -1.211301e+03 -1.993232e+03 -7.850961e+02  2.461016e+03 0.0 0.0 9.0
#pdf 21 21 3.969993e-01 3.697784e-01 5000.0 1.088259e-02 1.527776e-02
</event>
<event>
4 6 1.0 5000.0 7.905138e-03 7.739137e-02
21 -1 0 0 103 101  0.000000e+00  0.000000e+00  1.590240e+03  1.590240e+03 0.0 0.0 9.0
21 -1 0 0 101 102  0.000000e+00  0.000000e+00 -2.772295e+03  2.772295e+03 0.0 0.0 9.0
21  1 1 2 103 102  1.687734e+01  2.006582e+03  5.101942e+01  2.007301e+03 0.0 0.0 9.0
22  1 1 2   0   0 -1.687734e+01 -2.006582e+03 -1.233074e+03  2.355234e+03 0.0 0.0 9.0
#pdf 21 21 2.446524e-01 4.265069e-01 5000.0 7.127926e-02 7.479629e-03
</event>
<event>
4 6 1.0 5000.0 7.905138e-03 7.739137e-02
21 -1 0 0 103 101  0.000000e+00  0.000000e+00  2.565806e+03  2.565806e+03 0.0 0.0 9.0
21 -1 0 0 101 102  0.000000e+00  0.000000e+00 -2.450407e+03  2.450407e+03 0.0 0.0 9.0
22  1 1 2   0   0 -1.433090e+03  1.798369e+03 -9.422622e+02  2.485102e+03 0.0 0.0 9.0
21  1 1 2 103 102  1.433090e+03 -1.798369e+03  1.057661e+03  2.531111e+03 0.0 0.0 9.0
#pdf 21 21 3.947394e-01 3.769857e-01 5000.0 1.119596e-02 1.398901e-02
</event>
<event>
4 6 1.0 5000.0 7.905138e-03 7.739137e-02
21 -1 0 0 101 102  0.000000e+00  0.000000e+00  1.697185e+03  1.697185e+03 0.0 0.0 9.0
21 -1 0 0 103 101  0.000000e+00  0.000000e+00 -3.520804e+03  3.520804e+03 0.0 0.0 9.0
21  1 1 2 103 102  1.310441e+03  1.264914e+03  8.283160e+02  2.000843e+03 0.0 0.0 9.0
22  1 1 2   0   0 -1.310441e+03 -1.264914e+03 -2.651935e+03  3.217145e+03 0.0 0.0 9.0
#pdf 21 21 2.611053e-01 5.416621e-01 5000.0 5.809914e-02 1.561820e-03
</event>
<event>
4 6 1.0 5000.0 7.905138e-03 7.739137e-02
21 -1 0 0 103 101  0.000000e+00  0.000000e+00  1.827102e+03  1.827102e+03 0.0 0.0 9.0
21 -1 0 0 101 102  0.000000e+00  0.000000e+00 -3.546708e+03  3.546708e+03 0.0 0.0 9.0
21  1 1 2 103 102  2.042428e+03 -1.509114e+03 -6.731774e+02  2.627186e+03 0.0 0.0 9.0
22  1 1 2   0   0 -2.042428e+03  1.509114e+03 -1.046428e+03  2.746625e+03 0.0 0.0 9.0
#pdf 21 21 2.810927e-01 5.456474e-01 5000.0 4.540896e-02 1.474068e-03
</event>
<event>
4 6 1.0 5000.0 7.905138e-03 7.739137e-02
21 -1 0 0 103 101  0.000000e+00  0.000000e+00  2.516405e+03  2.516405e+03 0.0 0.0 9.0
21 -1 0 0 101 102  0.000000e+00  0.000000e+00 -2.139326e+03  2.139326e+03 0.0 0.0 9.0
21  1 1 2 103 102 -6.754730e+02  2.195647e+03  5.156228e+02  2.354357e+03 0.0 0.0 9.0
22  1 1 2   0   0  6.754730e+02 -2.195647e+03 -1.385443e+02  2.301374e+03 0.0 0.0 9.0
#pdf 21 21 3.871392e-01 3.291271e-01 5000.0 1.232001e-02 2.521424e-02
</event>
<event>
4 6 1.0 5000.0 7.905138e-03 7.739137e-02
21 -1 0 0 103 101  0.000000e+00  0.000000e+00  2.517759e+03  2.517759e+03 0.0 0.0 9.0
21 -1 0 0 101 102  0.000000e+00  0.000000e+00 -2.565140e+03  2.565140e+03 0.0 0.0 9.0
22  1 1 2   0   0 -4.129920e+02  9.574433e+02  2.293983e+03  2.519845e+03 0.0 0.0 9.0
21  1 1 2 103 102  4.129920e+02 -9.574433e+02 -2.341364e+03  2.563054e+03 0.0 0.0 9.0
#pdf 21 21 3.873476e-01 3.946369e-01 5000.0 1.228767e-02 1.121040e-02
</event>
<event>
4 6 1.0 5000.0 7.905138e-03 7.739137e-02
21 -1 0 0 103 101  0.000000e+00  0.000000e+00  1.845107e+03  1.845107e+03 0.0 0.0 9.0
21 -1 0 0 101 102  0.000000e+00  0.000000e+00 -2.416428e+03  2.416428e+03 0.0 0.0 9.0
22  1 1 2   0   0 -1.348118e+03 -7.292186e+02  1.179943e+03  1.934282e+03 0.0 0.0 9.0
21  1 1 2 103 102  1.348118e+03  7.292186e+02 -1.751264e+03  2.327253e+03 0.0 0.0 9.0
#pdf 21 21 2.838626e-01 3.717582e-01 5000.0 4.388893e-02 1.490955e-02
</event>
<event>
4 6 1.0 5000.0 7.905138e-03 7.739137e-02
21 -1 0 0 101 102  0.000000e+00  0.000000e+00  2.679987e+03  2.679987e+03 0.0 0.0 9.0
21 -1 0 0 103 101  0.000000e+00  0.000000e+00 -2.374587e+03  2.374587e+03 0.0 0.0 9.0
22  1 1 2   0   0  2.139740e+03  9.965657e+02  1.044403e+03  2.581164e+03 0.0 0.0 9.0
21  1 1 2 103 102 -2.139740e+03 -9.965657e+02 -7.390038e+02  2.473410e+03 0.0 0.0 9.0
#pdf 21 21 4.123057e-01 3.653211e-01 5000.0 8.966753e-03 1.615613e-02
</event>
<event>
4 6 1.0 5000.0 7.905138e-03 7.739137e-02
21 -1 0 0 101 102  0.000000e+00  0.000000e+00  3.218279e+03  3.218279e+03 0.0 0.0 9.0
21 -1 0 0 103 101  0.000000e+00  0.000000e+00 -1.849880e+03  1.849880e+03 0.0 0.0 9.0
21  1 1 2 103 102 -8.611670e+02  4.958819e+02 -1.630191e+03  1.909196e+03 0.0 0.0 9.0
22  1 1 2   0   0  8.611670e+02 -4.958819e+02  2.998590e+03  3.158963e+03 0.0 0.0 9.0
#pdf 21 21 4.951199e-01 2.845969e-01 5000.0 3.014433e-03 4.349736e-02
</event>
<event>
4 6 1.0 5000.0 7.905138e-03 7.739137e-02
21 -1 0 0 103 101  0.000000e+00  0.000000e+00  2.221173e+03  2.221173e+03 0.0 0.0 9.0
21 -1 0 0 101 102  0.000000e+00  0.000000e+00 -2.951307e+03  2.951307e+03 0.0 0.0 9.0
21  1 1 2 103 102 -1.258070e+03  1.089031e+03  1.600542e+03  2.308780e+03 0.0 0.0 9.0
22  1 1 2   0   0  1.258070e+03 -1.089031e+03 -2.330676e+03  2.863700e+03 0.0 0.0 9.0
#pdf 21 21 3.417189e-01 4.540472e-01 5000.0 2.160366e-02 5.233630e-03
</event>
<event>
4 6 1.0 5000.0 7.905138e-03 7.739137e-02
21 -1 0 0 103 101  0.000000e+00  0.000000e+00  1.688110e+03  1.688110e+03 0.0 0.0 9.0
21 -1 0 0 101 102  0.000000e+00  0.000000e+00 -3.261154e+03  3.261154e+03 0.0 0.0 9.0
21  1 1 2 103 102  1.005567e+03  1.772797e+03 -2.012511e+03  2.864293e+03 0.0 0.0 9.0
22  1 1 2   0   0 -1.005567e+03 -1.772797e+03  4.394671e+02  2.084971e+03 0.0 0.0 9.0
#pdf 21 21 2.597093e-01 5.017160e-01 5000.0 5.912281e-02 2.752123e-03
</event>
<event>
4 6 1.0 5000.0 7.905138e-03 7.739137e-02
21 -1 0 0 103 101  0.000000e+00  0.000000e+00  3.742740e+03  3.742740e+03 0.0 0.0 9.0
21 -1 0 0 101 102  0.000000e+00  0.000000e+00 -1.952720e+03  1.952720e+03 0.0 0.0 9.0
22  1 1 2   0   0 -2.153872e+03  1.043382e+03 -4.293635e+02  2.431494e+03 0.0 0.0 9.0
21  1 1 2 103 102  2.153872e+03 -1.043382e+03  2.219384e+03  3.263966e+03 0.0 0.0 9.0
#pdf 21 21 5.758062e-01 3.004184e-01 5000.0 9.373444e-04 3.582601e-02
</event>
<event>
4 6 1.0 5000.0 7.905138e-03 7.739137e-02
21 -1 0 0 101 102  0.000000e+00  0.000000e+00  2.126546e+03  2.126546e+03 0.0 0.0 9.0
21 -1 0 0 103 101  0.000000e+00  0.000000e+00 -2.897503e+03  2.897503e+03 0.0 0.0 9.0
21  1 1 2 103 102 -3.878845e+02  9.997145e+02  1.880058e+03  2.164371e+03 0.0 0.0 9.0
22  1 1 2   0   0  3.878845e+02 -9.997145e+02 -2.651014e+03  2.859678e+03 0.0 0.0 9.0
#pdf 21 21 3.271609e-01 4.457696e-01 5000.0 2.582807e-02 5.827245e-03
</event>
<event>
4 6 1.0 5000.0 7.905138e-03 7.739137e-02
21 -1 0 0 101 102  0.000000e+00  0.000000e+00  2.252296e+03  2.252296e+03 0.0 0.0 9.0
21 -1 0 0 103 101  0.000000e+00  0.000000e+00 -2.837358e+03  2.837358e+03 0.0 0.0 9.0
22  1 1 2   0   0 -1.081663e+03  1.388346e+03 -2.119322e+03  2.754819e+03 0.0 0.0 9.0
21  1 1 2 103 102  1.081663e+03 -1.388346e+03  1.534260e+03  2.334835e+03 0.0 0.0 9.0
#pdf 21 21 3.465071e-01 4.365166e-01 5000.0 2.037514e-02 6.579662e-03
</event>
<event>
4 6 1.0 5000.0 7.905138e-03 7.739137e-02
21 -1 0 0 103 101  0.000000e+00  0.000000e+00  1.593994e+03  1.593994e+03 0.0 0.0 9.0
21 -1 0 0 101 102  0.000000e+00  0.000000e+00 -4.061798e+03  4.061798e+03 0.0 0.0 9.0
21  1 1 2 103 102  1.833615e+03 -1.736811e+03 -1.577934e+03  2.978008e+03 0.0 0.0 9.0
22  1 1 2   0   0 -1.833615e+03  1.736811e+03 -8.898699e+02  2.677784e+03 0.0 0.0 9.0
#pdf 21 21 2.452299e-01 6.248919e-01 5000.0 7.074834e-02 4.270677e-04
</event>
<event>
4 6 1.0 5000.0 7.905138e-03 7.739137e-02
21 -1 0 0 101 102  0.000000e+00  0.000000e+00  1.501539e+03  1.501539e+03 0.0 0.0 9.0
21 -1 0 0 103 101  0.000000e+00  0.000000e+00 -3.029157e+03  3.029157e+03 0.0 0.0 9.0
21  1 1 2 103 102 -8.324325e+02  9.152135e+02 -2.609053e+03  2.887510e+03 0.0 0.0 9.0
22  1 1 2   0   0  8.324325e+02 -9.152135e+02  1.081435e+03  1.643186e+03 0.0 0.0 9.0
#pdf 21 21 2.310060e-01 4.660242e-01 5000.0 8.456864e-02 4.464537e-03
</event>
<event>
4 6 1.0 5000.0 7.905138e-03 7.739137e-02
21 -1 0 0 101 102  0.000000e+00  0.000000e+00  2.312338e+03  2.312338e+03 0.0 0.0 9.0
21 -1 0 0 103 101  0.000000e+00  0.000000e+00 -2.905825e+03  2.905825e+03 0.0 0.0 9.0
22  1 1 2   0   0  2.305221e+03  1.115087e+03 -7.015978e+02  2.655127e+03 0.0 0.0 9.0
21  1 1 2 103 102 -2.305221e+03 -1.115087e+03  1.081102e+02  2.563035e+03 0.0 0.0 9.0
#pdf 21 21 3.557442e-01 4.470500e-01 5000.0 1.817546e-02 5.730096e-03
</event>
<event>
4 6 1.0 5000.0 7.905138e-03 7.739137e-02
21 -1 0 0 101 102  0.000000e+00  0.000000e+00  1.793646e+03  1.793646e+03 0.0 0.0 9.0
21 -1 0 0 103 101  0.000000e+00  0.000000e+00 -2.909955e+03  2.909955e+03 0.0 0.0 9.0
22  1 1 2   0   0 -2.124513e+03  8.381672e+01 -1.418713e+03  2.556037e+03 0.0 0.0 9.0
21  1 1 2 103 102  2.124513e+03 -8.381672e+01  3.024035e+02  2.147564e+03 0.0 0.0 9.0
#pdf 21 21 2.759455e-01 4.476854e-01 5000.0 4.837846e-02 5.683252e-03
</event>
<event>
4 6 1.0 5000.0 7.905138e-03 7.739137e-02
21 -1 0 0 101 102  0.000000e+00  0.000000e+00  2.986932e+03  2.986932e+03 0.0 0.0 9.0
21 -1 0 0 103 101  0.000000e+00  0.000000e+00 -2.056485e+03  2.056485e+03 0.0 0.0 9.0
22  1 1 2   0   0 -1.375926e+03  1.824634e+03  1.441205e+03  2.701765e+03 0.0 0.0 9.0
21  1 1 2 103 102  1.375926e+03 -1.824634e+03 -5.107567e+02  2.341652e+03 0.0 0.0 9.0
#pdf 21 21 4.595281e-01 3.163822e-01 5000.0 4.866016e-03 2.947377e-02
</event>
<event>
4 6 1.0 5000.0 7.905138e-03 7.739137e-02
21 -1 0 0 101 102  0.000000e+00  0.000000e+00  4.636345e+03  4.636345e+03 0.0 0.0 9.0
21 -1 0 0 103 101  0.000000e+00  0.000000e+00 -1.347654e+03  1.347654e+03 0.0 0.0 9.0
21  1 1 2 103 102  3.298015e+02  2.321273e+03  6.069699e+02  2.421878e+03 0.0 0.0 9.0
22  1 1 2   0   0 -3.298015e+02 -2.321273e+03  2.681722e+03  3.562122e+03 0.0 0.0 9.0
#pdf 21 21 7.132839e-01 2.073314e-01 5000.0 8.258252e-05 1.143299e-01
</event>
<event>
4 6 1.0 5000.0 7.905138e-03 7.739137e-02
21 -1 0 0 101 102  0.000000e+00  0.000000e+00  2.001105e+03  2.001105e+03 0.0 0.0 9.0
21 -1 0 0 103 101  0.000000e+00  0.000000e+00 -3.328938e+03  3.328938e+03 0.0 0.0 9.0
21  1 1 2 103 102 -3.129852e+02 -1.808722e+03  1.209571e+03  2.198294e+03 0.0 0.0 9.0
22  1 1 2   0   0  3.129852e+02  1.808722e+03 -2.537404e+03  3.131749e+03 0.0 0.0 9.0
#pdf 21 21 3.078623e-01 5.121444e-01 5000.0 3.274700e-02 2.381189e-03
</event>
<event>
4 6 1.0 5000.0 7.905138e-03 7.739137e-02
21 -1 0 0 101 102  0.000000e+00  0.000000e+00  2.158874e+03  2.158874e+03 0.0 0.0 9.0
21 -1 0 0 103 101  0.000000e+00  0.000000e+00 -2.998613e+03  2.998613e+03 0.0 0.0 9.0
21  1 1 2 103 102  7.770202e+01 -1.874493e+03 -2.161796e+03  2.862363e+03 0.0 0.0 9.0
22  1 1 2   0   0 -7.770202e+01  1.874493e+03  1.322058e+03  2.295124e+03 0.0 0.0 9.0
#pdf 21 21 3.321345e-01 4.613251e-01 5000.0 2.430218e-02 4.750980e-03
</event>
<event>
4 6 1.0 5000.0 7.905138e-03 7.739137e-02
21 -1 0 0 103 101  0.000000e+00  0.000000e+00  3.039208e+03  3.039208e+03 0.0 0.0 9.0
21 -1 0 0 101 102  0.000000e+00  0.000000e+00 -2.182139e+03  2.182139e+03 0.0 0.0 9.0
21  1 1 2 103 102 -8.508980e+02  7.379522e+02 -1.919207e+03  2.225299e+03 0.0 0.0 9.0
22  1 1 2   0   0  8.508980e+02 -7.379522e+02  2.776276e+03  2.996049e+03 0.0 0.0 9.0
#pdf 21 21 4.675705e-01 3.357138e-01 5000.0 4.373898e-03 2.325614e-02
</event>
<event>
4 6 1.0 5000.0 7.905138e-03 7.739137e-02
21 -1 0 0 101 102  0.000000e+00  0.000000e+00  2.256223e+03  2.256223e+03 0.0 0.0 9.0
21 -1 0 0 103 101  0.000000e+00  0.000000e+00 -2.473461e+03  2.473461e+03 0.0 0.0 9.0
21  1 1 2 103 102  2.178893e+02  2.070869e+03 -1.225462e+03  2.416140e+03 0.0 0.0 9.0
22  1 1 2   0   0 -2.178893e+02 -2.070869e+03  1.008225e+03  2.313545e+03 0.0 0.0 9.0
#pdf 21 21 3.471113e-01 3.805325e-01 5000.0 2.022491e-02 1.338658e-02
</event>
<event>
4 6 1.0 5000.0 7.905138e-03 7.739137e-02
21 -1 0 0 103 101  0.000000e+00  0.000000e+00  1.659203e+03  1.659203e+03 0.0 0.0 9.0
21 -1 0 0 101 102  0.000000e+00  0.000000e+00 -3.181099e+03  3.181099e+03 0.0 0.0 9.0
21  1 1 2 103 102  1.933613e+03  6.049709e+02 -1.901979e+03  2.778916e+03 0.0 0.0 9.0
22  1 1 2   0   0 -1.933613e+03 -6.049709e+02  3.800830e+02  2.061386e+03 0.0 0.0 9.0
#pdf 21 21 2.552619e-01 4.893998e-01 5000.0 6.251244e-02 3.258914e-03
</event>
<event>
4 6 1.0 5000.0 7.905138e-03 7.739137e-02
21 -1 0 0 103 101  0.000000e+00  0.000000e+00  2.897488e+03  2.897488e+03 0.0 0.0 9.0
21 -1 0 0 101 102  0.000000e+00  0.000000e+00 -2.230734e+03  2.230734e+03 0.0 0.0 9.0
22  1 1 2   0   0  1.691355e+03 -1.848905e+03 -9.970882e+01  2.507803e+03 0.0 0.0 9.0
21  1 1 2 103 102 -1.691355e+03  1.848905e+03  7.664624e+02  2.620419e+03 0.0 0.0 9.0
#pdf 21 21 4.457674e-01 3.431899e-01 5000.0 5.827420e-03 2.121865e-02
</event>
<event>
4 6 1.0 5000.0 7.905138e-03 7.739137e-02
21 -1 0 0 101 102  0.000000e+00  0.000000e+00  3.218926e+03  3.218926e+03 0.0 0.0 9.0
21 -1 0 0 103 101  0.000000e+00  0.000000e+00 -1.866039e+03  1.866039e+03 0.0 0.0 9.0
22  1 1 2   0   0 -3.763888e+02 -6.870835e+02  3.085532e+03  3.183436e+03 0.0 0.0 9.0
21  1 1 2 103 102  3.763888e+02  6.870835e+02 -1.732646e+03  1.901529e+03 0.0 0.0 9.0
#pdf 21 21 4.952193e-01 2.870829e-01 5000.0 3.010330e-03 4.220339e-02
</event>
<event>
4 6 1.0 5000.0 7.905138e-03 7.739137e-02
21 -1 0 0 101 102  0.000000e+00  0.000000e+00  2.778873e+03  2.778873e+03 0.0 0.0 9.0
21 -1 0 0 103 101  0.000000e+00  0.000000e+00 -2.239054e+03  2.239054e+03 0.0 0.0 9.0
22  1 1 2   0   0  1.651317e+02 -7.091535e+02  2.669602e+03  2.767118e+03 0.0 0.0 9.0
21  1 1 2 103 102 -1.651317e+02  7.091535e+02 -2.129783e+03  2.250809e+03 0.0 0.0 9.0
#pdf 21 21 4.275189e-01 3.444699e-01 5000.0 7.382558e-03 2.088928e-02
</event>
<event>
4 6 1.0 5000.0 7.905138e-03 7.739137e-02
21 -1 0 0 101 102  0.000000e+00  0.000000e+00  3.047843e+03  3.047843e+03 0.0 0.0 9.0
21 -1 0 0 103 101  0.000000e+00  0.000000e+00 -1.875809e+03  1.875809e+03 0.0 0.0 9.0
21  1 1 2 103 102  2.386706e+03  1.471743e+01  4.382907e+02  2.426661e+03 0.0 0.0 9.0
22  1 1 2   0   0 -2.386706e+03 -1.471743e+01  7.337440e+02  2.496991e+03 0.0 0.0 9.0
#pdf 21 21 4.688989e-01 2.885859e-01 5000.0 4.297341e-03 4.144238e-02
</event>
<event>
4 6 1.0 5000.0 7.905138e-03 7.739137e-02
21 -1 0 0 103 101  0.000000e+00  0.000000e+00  3.111480e+03  3.111480e+03 0.0 0.0 9.0
21 -1 0 0 101 102  0.000000e+00  0.000000e+00 -2.083526e+03  2.083526e+03 0.0 0.0 9.0
21  1 1 2 103 102  8.690121e+02  1.665988e+03 -1.238863e+03  2.250662e+03 0.0 0.0 9.0
22  1 1 2   0   0 -8.690121e+02 -1.665988e+03  2.266817e+03  2.944343e+03 0.0 0.0 9.0
#pdf 21 21 4.786892e-01 3.205424e-01 5000.0 3.768628e-03 2.800619e-02
</event>
<event>
4 6 1.0 5000.0 7.905138e-03 7.739137e-02
21 -1 0 0 103 101  0.000000e+00  0.000000e+00  1.717121e+03  1.717121e+03 0.0 0.0 9.0
21 -1 0 0 101 102  0.000000e+00  0.000000e+00 -3.909709e+03  3.909709e+03 0.0 0.0 9.0
21  1 1 2 103 102 -2.211837e+03 -1.327338e+03 -1.360918e+03  2.916530e+03 0.0 0.0 9.0
22  1 1 2   0   0  2.211837e+03  1.327338e+03 -8.316695e+02  2.710300e+03 0.0 0.0 9.0
#pdf 21 21 2.641725e-01 6.014936e-01 5000.0 5.592501e-02 6.267782e-04
</event>
<event>
4 6 1.0 5000.0 7.905138e-03 7.739137e-02
21 -1 0 0 103 101  0.000000e+00  0.000000e+00  3.071878e+03  3.071878e+03 0.0 0.0 9.0
21 -1 0 0 101 102  0.000000e+00  0.000000e+00 -1.753273e+03  1.753273e+03 0.0 0.0 9.0
21  1 1 2 103 102  2.194533e+03 -7.221844e+02  4.307880e+02  2.350128e+03 0.0 0.0 9.0
22  1 1 2   0   0 -2.194533e+03  7.221844e+02  8.878169e+02  2.475024e+03 0.0 0.0 9.0
#pdf 21 21 4.725967e-01 2.697344e-01 5000.0 4.090446e-03 5.221586e-02
</event>
<event>
4 6 1.0 5000.0 7.905138e-03 7.739137e-02
21 -1 0 0 103 101  0.000000e+00  0.000000e+00  3.445662e+03  3.445662e+03 0.0 0.0 9.0
21 -1 0 0 101 102  0.000000e+00  0.000000e+00 -1.826609e+03  1.826609e+03 0.0 0.0 9.0
22  1 1 2   0   0  1.040562e+03 -1.540251e+03  2.579925e+03  3.179804e+03 0.0 0.0 9.0
21  1 1 2 103 102 -1.040562e+03  1.540251e+03 -9.608720e+02  2.092467e+03 0.0 0.0 9.0
#pdf 21 21 5.301018e-01 2.810168e-01 5000.0 1.847382e-03 4.545148e-02
</event>
<event>
4 6 1.0 5000.0 7.905138e-03 7.739137e-02
21 -1 0 0 103 101  0.000000e+00  0.000000e+00  1.459630e+03  1.459630e+03 0.0 0.0 9.0
21 -1 0 0 101 102  0.000000e+00  0.000000e+00 -4.295838e+03  4.295838e+03 0.0 0.0 9.0
21  1 1 2 103 102 -1.532573e+03 -1.902634e+03 -2.049173e+03  3.188715e+03 0.0 0.0 9.0
22  1 1 2   0   0  1.532573e+03  1.902634e+03 -7.870351e+02  2.566752e+03 0.0 0.0 9.0
#pdf 21 21 2.245584e-01 6.608981e-01 5000.0 9.176244e-02 2.280755e-04
</event>
<event>
4 6 1.0 5000.0 7.905138e-03 7.739137e-02
21 -1 0 0 103 101  0.000000e+00  0.000000e+00  1.801056e+03  1.801056e+03 0.0 0.0 9.0
21 -1 0 0 101 102  0.000000e+00  0.000000e+00 -3.430383e+03  3.430383e+03 0.0 0.0 9.0
22  1 1 2   0   0 -1.943758e+03 -5.783105e+02  6.978083e+02  2.144662e+03 0.0 0.0 9.0
21  1 1 2 103 102  1.943758e+03  5.783105e+02 -2.327136e+03  3.086778e+03 0.0 0.0 9.0
#pdf 21 21 2.770855e-01 5.277513e-01 5000.0 4.770537e-02 1.910316e-03
</event>
<event>
4 6 1.0 5000.0 7.905138e-03 7.739137e-02
21 -1 0 0 103 101  0.000000e+00  0.000000e+00  2.709058e+03  2.709058e+03 0.0 0.0 9.0
21 -1 0 0 101 102  0.000000e+00  0.000000e+00 -2.337147e+03  2.337147e+03 0.0 0.0 9.0
22  1 1 2   0   0  1.671174e+03  7.902169e+02 -1.525803e+03  2.396944e+03 0.0 0.0 9.0
21  1 1 2 103 102 -1.671174e+03 -7.902169e+02  1.897714e+03  2.649261e+03 0.0 0.0 9.0
#pdf 21 21 4.167781e-01 3.595610e-01 5000.0 8.470902e-03 1.734143e-02
</event>
<event>
4 6 1.0 5000.0 7.905138e-03 7.739137e-02
21 -1 0 0 101 102  0.000000e+00  0.000000e+00  2.362179e+03  2.362179e+03 0.0 0.0 9.0
21 -1 0 0 103 101  0.000000e+00  0.000000e+00 -2.645628e+03  2.645628e+03 0.0 0.0 9.0
21  1 1 2 103 102 -1.399506e+02  1.005975e+03  2.146210e+03  2.374403e+03 0.0 0.0 9.0
22  1 1 2   0   0  1.399506e+02 -1.005975e+03 -2.429659e+03  2.633404e+03 0.0 0.0 9.0
#pdf 21 21 3.634121e-01 4.070197e-01 5000.0 1.654192e-02 9.590829e-03
</event>
<event>
4 6 1.0 5000.0 7.905138e-03 7.739137e-02
21 -1 0 0 103 101  0.000000e+00  0.000000e+00  1.634823e+03  1.634823e+03 0.0 0.0 9.0
21 -1 0 0 101 102  0.000000e+00  0.000000e+00 -3.483247e+03  3.483247e+03 0.0 0.0 9.0
22  1 1 2   0   0  6.972165e+02 -1.866807e+01  1.523078e+03  1.675180e+03 0.0 0.0 9.0
21  1 1 2 103 102 -6.972165e+02  1.866807e+01 -3.371503e+03  3.442890e+03 0.0 0.0 9.0
#pdf 21 21 2.515112e-01 5.358842e-01 5000.0 6.550316e-02 1.698773e-03
</event>
<event>
4 6 1.0 5000.0 7.905138e-03 7.739137e-02
21 -1 0 0 103 101  0.000000e+00  0.000000e+00  2.290653e+03  2.290653e+03 0.0 0.0 9.0
21 -1 0 0 101 102  0.000000e+00  0.000000e+00 -2.693676e+03  2.693676e+03 0.0 0.0 9.0
21  1 1 2 103 102 -9.507458e+02 -1.139202e+03  1.797162e+03  2.330556e+03 0.0 0.0 9.0
22  1 1 2   0   0  9.507458e+02  1.139202e+03 -2.200185e+03  2.653773e+03 0.0 0.0 9.0
#pdf 21 21 3.524082e-01 4.144117e-01 5000.0 1.894692e-02 8.729762e-03
</event>
<event>
4 6 1.0 5000.0 7.905138e-03 7.739137e-02
21 -1 0 0 101 102  0.000000e+00  0.000000e+00  1.904850e+03  1.904850e+03 0.0 0.0 9.0
21 -1 0 0 103 101  0.000000e+00  0.000000e+00 -2.648472e+03  2.648472e+03 0.0 0.0 9.0
22  1 1 2   0   0  1.876958e+03  1.212657e+03 -6.016864e+02  2.314203e+03 0.0 0.0 9.0
21  1 1 2 103 102 -1.876958e+03 -1.212657e+03 -1.419355e+02  2.239119e+03 0.0 0.0 9.0
#pdf 21 21 2.930538e-01 4.074572e-01 5000.0 3.925680e-02 9.537669e-03
</event>
<event>
4 6 1.0 5000.0 7.905138e-03 7.739137e-02
21 -1 0 0 103 101  0.000000e+00  0.000000e+00  5.005260e+03  5.005260e+03 0.0 0.0 9.0
21 -1 0 0 101 102  0.000000e+00  0.000000e+00 -1.271306e+03  1.271306e+03 0.0 0.0 9.0
21  1 1 2 103 102 -1.493807e+03 -1.662852e+03  4.125646e+02  2.273048e+03 0.0 0.0 9.0
22  1 1 2   0   0  1.493807e+03  1.662852e+03  3.321389e+03  4.003519e+03 0.0 0.0 9.0
#pdf 21 21 7.700400e-01 1.955856e-01 5000.0 2.266879e-05 1.332409e-01
</event>
<event>
4 6 1.0 5000.0 7.905138e-03 7.739137e-02
21 -1 0 0 103 101  0.000000e+00  0.000000e+00  3.127584e+03  3.127584e+03 0.0 0.0 9.0
21 -1 0 0 101 102  0.000000e+00  0.000000e+00 -1.985282e+03  1.985282e+03 0.0 0.0 9.0
21  1 1 2 103 102 -1.702683e+03  1.440821e+03  1.710832e+03  2.811057e+03 0.0 0.0 9.0
22  1 1 2   0   0  1.702683e+03 -1.440821e+03 -5.685301e+02  2.301808e+03 0.0 0.0 9.0
#pdf 21 21 4.811668e-01 3.054280e-01 5000.0 3.644224e-03 3.373623e-02
</event>
<event>
4 6 1.0 5000.0 7.905138e-03 7.739137e-02
21 -1 0 0 101 102  0.000000e+00  0.000000e+00  1.291148e+03  1.291148e+03 0.0 0.0 9.0
21 -1 0 0 103 101  0.000000e+00  0.000000e+00 -4.774033e+03  4.774033e+03 0.0 0.0 9.0
21  1 1 2 103 102  4.641337e+02  1.171391e+03 -4.354478e+03  4.533107e+03 0.0 0.0 9.0
22  1 1 2   0   0 -4.641337e+02 -1.171391e+03  8.715927e+02  1.532074e+03 0.0 0.0 9.0
#pdf 21 21 1.986381e-01 7.344667e-01 5000.0 1.280642e-01 5.240757e-05
</event>
<event>
4 6 1.0 5000.0 7.905138e-03 7.739137e-02
21 -1 0 0 103 101  0.000000e+00  0.000000e+00  2.543475e+03  2.543475e+03 0.0 0.0 9.0
21 -1 0 0 101 102  0.000000e+00  0.000000e+00 -2.169866e+03  2.169866e+03 0.0 0.0 9.0
21  1 1 2 103 102  3.901950e+02 -1.267230e+03 -1.758614e+03  2.202464e+03 0.0 0.0 9.0
22  1 1 2   0   0 -3.901950e+02  1.267230e+03  2.132223e+03  2.510876e+03 0.0 0.0 9.0
#pdf 21 21 3.913038e-01 3.338255e-01 5000.0 1.169007e-02 2.380285e-02
</event>
<event>
4 6 1.0 5000.0 7.905138e-03 7.739137e-02
21 -1 0 0 103 101  0.000000e+00  0.000000e+00  2.074961e+03  2.074961e+03 0.0 0.0 9.0
21 -1 0 0 101 102  0.000000e+00  0.000000e+00 -2.970980e+03  2.970980e+03 0.0 0.0 9.0
22  1 1 2   0   0  2.138842e+03 -3.514108e+02 -1.678570e+03  2.741484e+03 0.0 0.0 9.0
21  1 1 2 103 102 -2.138842e+03  3.514108e+02  7.825513e+02  2.304457e+03 0.0 0.0 9.0
#pdf 21 21 3.192248e-01 4.570739e-01 5000.0 2.846204e-02 5.027789e-03
</event>
<event>
4 6 1.0 5000.0 7.905138e-03 7.739137e-02
21 -1 0 0 103 101  0.000000e+00  0.000000e+00  1.927666e+03  1.927666e+03 0.0 0.0 9.0
21 -1 0 0 101 102  0.000000e+00  0.000000e+00 -2.708164e+03  2.708164e+03 0.0 0.0 9.0
21  1 1 2 103 102  1.710363e+03  1.474098e+03 -7.447822e+02  2.377605e+03 0.0 0.0 9.0
22  1 1 2   0   0 -1.710363e+03 -1.474098e+03 -3.571500e+01  2.258225e+03 0.0 0.0 9.0
#pdf 21 21 2.965640e-01 4.166405e-01 5000.0 3.759986e-02 8.485745e-03
</event>
<event>
4 6 1.0 5000.0 7.905138e-03 7.739137e-02
21 -1 0 0 101 102  0.000000e+00  0.000000e+00  2.615838e+03  2.615838e+03 0.0 0.0 9.0
21 -1 0 0 103 101  0.000000e+00  0.000000e+00 -2.327161e+03  2.327161e+03 0.0 0.0 9.0
21  1 1 2 103 102 -1.947240e+03 -1.515164e+03  1.409658e+02  2.471303e+03 0.0 0.0 9.0
22  1 1 2   0   0  1.947240e+03  1.515164e+03  1.477114e+02  2.471697e+03 0.0 0.0 9.0
#pdf 21 21 4.024367e-01 3.580248e-01 5000.0 1.016314e-02 1.767119e-02
</event>
<event>
4 6 1.0 5000.0 7.905138e-03 7.739137e-02
21 -1 0 0 103 101  0.000000e+00  0.000000e+00  2.805921e+03  2.805921e+03 0.0 0.0 9.0
21 -1 0 0 101 102  0.000000e+00  0.000000e+00 -1.892883e+03  1.892883e+03 0.0 0.0 9.0
21  1 1 2 103 102  1.312526e+03 -1.744106e+03  1.210245e+03  2.495861e+03 0.0 0.0 9.0
22  1 1 2   0   0 -1.312526e+03  1.744106e+03 -2.972072e+02  2.202944e+03 0.0 0.0 9.0
#pdf 21 21 4.316801e-01 2.912128e-01 5000.0 6.999061e-03 4.014504e-02
</event>
<event>
4 6 1.0 5000.0 7.905138e-03 7.739137e-02
21 -1 0 0 103 101  0.000000e+00  0.000000e+00  3.438776e+03  3.438776e+03 0.0 0.0 9.0
21 -1 0 0 101 102  0.000000e+00  0.000000e+00 -1.315902e+03  1.315902e+03 0.0 0.0 9.0
22  1 1 2   0   0 -1.754430e+03 -7.270663e+02 -9.596844e+00  1.899142e+03 0.0 0.0 9.0
21  1 1 2 103 102  1.754430e+03  7.270663e+02  2.132472e+03  2.855536e+03 0.0 0.0 9.0
#pdf 21 21 5.290425e-01 2.024464e-01 5000.0 1.875538e-03 1.218459e-01
</event>
<event>
4 6 1.0 5000.0 7.905138e-03 7.739137e-02
21 -1 0 0 103 101  0.000000e+00  0.000000e+00  1.239170e+03  1.239170e+03 0.0 0.0 9.0
21 -1 0 0 101 102  0.000000e+00  0.000000e+00 -5.062216e+03  5.062216e+03 0.0 0.0 9.0
21  1 1 2 103 102 -6.022966e+02  1.647109e+03 -4.160870e+03  4.515370e+03 0.0 0.0 9.0
22  1 1 2   0   0  6.022966e+02 -1.647109e+03  3.378234e+02  1.786016e+03 0.0 0.0 9.0
#pdf 21 21 1.906415e-01 7.788025e-01 5000.0 1.422487e-01 1.811085e-05
</event>
<event>
4 6 1.0 5000.0 7.905138e-03 7.739137e-02
21 -1 0 0 103 101  0.000000e+00  0.000000e+00  2.669871e+03  2.669871e+03 0.0 0.0 9.0
21 -1 0 0 101 102  0.000000e+00  0.000000e+00 -2.393134e+03  2.393134e+03 0.0 0.0 9.0
22  1 1 2   0   0 -9.248706e+02 -2.320143e+03  5.274217e+02  2.552768e+03 0.0 0.0 9.0
21  1 1 2 103 102  9.248706e+02  2.320143e+03 -2.506843e+02  2.510238e+03 0.0 0.0 9.0
#pdf 21 21 4.107495e-01 3.681745e-01 5000.0 9.146092e-03 1.558784e-02
</event>
<event>
4 6 1.0 5000.0 7.905138e-03 7.739137e-02
21 -1 0 0 101 102  0.000000e+00  0.000000e+00  2.103716e+03  2.103716e+03 0.0 0.0 9.0
21 -1 0 0 103 101  0.000000e+00  0.000000e+00 -2.932464e+03  2.932464e+03 0.0 0.0 9.0
21  1 1 2 103 102 -1.672568e+03 -2.644300e+01 -2.275747e+03  2.824395e+03 0.0 0.0 9.0
22  1 1 2   0   0  1.672568e+03  2.644300e+01  1.446999e+03  2.211784e+03 0.0 0.0 9.0
#pdf 21 21 3.236486e-01 4.511483e-01 5000.0 2.696156e-02 5.436011e-03
</event>
<event>
4 6 1.0 5000.0 7.905138e-03 7.739137e-02
21 -1 0 0 101 102  0.000000e+00  0.000000e+00  3.257198e+03  3.257198e+03 0.0 0.0 9.0
21 -1 0 0 103 101  0.000000e+00  0.000000e+00 -2.017931e+03  2.017931e+03 0.0 0.0 9.0
21  1 1 2 103 102  1.262995e+03 -4.210209e+01  2.914527e+03  3.176696e+03 0.0 0.0 9.0
22  1 1 2   0   0 -1.262995e+03  4.210209e+01 -1.675260e+03  2.098434e+03 0.0 0.0 9.0
#pdf 21 21 5.011074e-01 3.104510e-01 5000.0 2.775426e-03 3.171853e-02
</event>
<event>
4 6 1.0 5000.0 7.905138e-03 7.739137e-02
21 -1 0 0 103 101  0.000000e+00  0.000000e+00  2.917822e+03  2.917822e+03 0.0 0.0 9.0
21 -1 0 0 101 102  0.000000e+00  0.000000e+00 -2.037308e+03  2.037308e+03 0.0 0.0 9.0
22  1 1 2   0   0  1.893872e+03 -2.116971e+02  1.985686e+03  2.752184e+03 0.0 0.0 9.0
21  1 1 2 103 102 -1.893872e+03  2.116971e+02 -1.105172e+03  2.202946e+03 0.0 0.0 9.0
#pdf 21 21 4.488957e-01 3.134320e-01 5000.0 5.595882e-03 3.056912e-02
</event>
<event>
4 6 1.0 5000.0 7.905138e-03 7.739137e-02
21 -1 0 0 101 102  0.000000e+00  0.000000e+00  3.476845e+03  3.476845e+03 0.0 0.0 9.0
21 -1 0 0 103 101  0.000000e+00  0.000000e+00 -1.792139e+03  1.792139e+03 0.0 0.0 9.0
21  1 1 2 103 102  2.034970e+03 -4.425767e+01 -6.826684e+02  2.146881e+03 0.0 0.0 9.0
22  1 1 2   0   0 -2.034970e+03  4.425767e+01  2.367374e+03  3.122102e+03 0.0 0.0 9.0
#pdf 21 21 5.348992e-01 2.757137e-01 5000.0 1.723556e-03 4.851649e-02
</event>
<event>
4 6 1.0 5000.0 7.905138e-03 7.739137e-02
21 -1 0 0 101 102  0.000000e+00  0.000000e+00  2.168989e+03  2.168989e+03 0.0 0.0 9.0
21 -1 0 0 103 101  0.000000e+00  0.000000e+00 -2.893905e+03  2.893905e+03 0.0 0.0 9.0
21  1 1 2 103 102  5.783313e+02 -2.409584e+03 -7.354705e+02  2.584856e+03 0.0 0.0 9.0
22  1 1 2   0   0 -5.783313e+02  2.409584e+03  1.055413e+01  2.478038e+03 0.0 0.0 9.0
#pdf 21 21 3.336906e-01 4.452162e-01 5000.0 2.384236e-02 5.870615e-03
</event>
<event>
4 6 1.0 5000.0 7.905138e-03 7.739137e-02
21 -1 0 0 103 101  0.000000e+00  0.000000e+00  1.622390e+03  1.622390e+03 0.0 0.0 9.0
21 -1 0 0 101 102  0.000000e+00  0.000000e+00 -4.003376e+03  4.003376e+03 0.0 0.0 9.0
21  1 1 2 103 102  4.486158e+02  2.418846e+03 -1.925086e+03  3.123784e+03 0.0 0.0 9.0
22  1 1 2   0   0 -4.486158e+02 -2.418846e+03 -4.559002e+02  2.501982e+03 0.0 0.0 9.0
#pdf 21 21 2.495985e-01 6.159040e-01 5000.0 6.706672e-02 4.958087e-04
</event>
<event>
4 6 1.0 5000.0 7.905138e-03 7.739137e-02
21 -1 0 0 103 101  0.000000e+00  0.000000e+00  5.418830e+03  5.418830e+03 0.0 0.0 9.0
21 -1 0 0 101 102  0.000000e+00  0.000000e+00 -1.089712e+03  1.089712e+03 0.0 0.0 9.0
21  1 1 2 103 102  1.971675e+03  1.167804e+03  1.081795e+03  2.534077e+03 0.0 0.0 9.0
22  1 1 2   0   0 -1.971675e+03 -1.167804e+03  3.247322e+03  3.974465e+03 0.0 0.0 9.0
#pdf 21 21 8.336661e-01 1.676480e-01 5000.0 3.654095e-06 1.938409e-01
</event>
<event>
4 6 1.0 5000.0 7.905138e-03 7.739137e-02
21 -1 0 0 101 102  0.000000e+00  0.000000e+00  2.519105e+03  2.519105e+03 0.0 0.0 9.0
21 -1 0 0 103 101  0.000000e+00  0.000000e+00 -2.130553e+03  2.130553e+03 0.0 0.0 9.0
21  1 1 2 103 102  3.816825e+02 -1.899812e+03 -1.079872e+03  2.218353e+03 0.0 0.0 9.0
22  1 1 2   0   0 -3.816825e+02  1.899812e+03  1.468425e+03  2.431304e+03 0.0 0.0 9.0
#pdf 21 21 3.875546e-01 3.277773e-01 5000.0 1.225562e-02 2.563410e-02
</event>
<event>
4 6 1.0 5000.0 7.905138e-03 7.739137e-02
21 -1 0 0 103 101  0.000000e+00  0.000000e+00  1.544961e+03  1.544961e+03 0.0 0.0 9.0
21 -1 0 0 101 102  0.000000e+00  0.000000e+00 -4.060704e+03  4.060704e+03 0.0 0.0 9.0
22  1 1 2   0   0 -1.000704e+03 -1.801692e+02 -3.819366e+03  3.952394e+03 0.0 0.0 9.0
21  1 1 2 103 102  1.000704e+03  1.801692e+02  1.303622e+03  1.653270e+03 0.0 0.0 9.0
#pdf 21 21 2.376862e-01 6.247236e-01 5000.0 7.783200e-02 4.282802e-04
</event>
<event>
4 6 1.0 5000.0 7.905138e-03 7.739137e-02
21 -1 0 0 103 101  0.000000e+00  0.000000e+00  1.492206e+03  1.492206e+03 0.0 0.0 9.0
21 -1 0 0 101 102  0.000000e+00  0.000000e+00 -3.616046e+03  3.616046e+03 0.0 0.0 9.0
21  1 1 2 103 102  7.922428e+02  9.789495e+02  1.084267e+03  1.661814e+03 0.0 0.0 9.0
22  1 1 2   0   0 -7.922428e+02 -9.789495e+02 -3.208107e+03  3.446439e+03 0.0 0.0 9.0
#pdf 21 21 2.295702e-01 5.563148e-01 5000.0 8.610362e-02 1.259992e-03
</event>
<event>
4 6 1.0 5000.0 7.905138e-03 7.739137e-02
21 -1 0 0 103 101  0.000000e+00  0.000000e+00  3.982351e+03  3.982351e+03 0.0 0.0 9.0
21 -1 0 0 101 102  0.000000e+00  0.000000e+00 -1.350036e+03  1.350036e+03 0.0 0.0 9.0
21  1 1 2 103 102  7.048997e+02 -9.835794e+02  3.590464e+03  3.788897e+03 0.0 0.0 9.0
22  1 1 2   0   0 -7.048997e+02  9.835794e+02 -9.581484e+02  1.543490e+03 0.0 0.0 9.0
#pdf 21 21 6.126694e-01 2.076978e-01 5000.0 5.228340e-04 1.137939e-01
</event>
<event>
4 6 1.0 5000.0 7.905138e-03 7.739137e-02
21 -1 0 0 101 102  0.000000e+00  0.000000e+00  2.729199e+03  2.729199e+03 0.0 0.0 9.0
21 -1 0 0 103 101  0.000000e+00  0.000000e+00 -2.169692e+03  2.169692e+03 0.0 0.0 9.0
21  1 1 2 103 102 -7.577558e+02 -1.722078e+03  1.833218e+03  2.626868e+03 0.0 0.0 9.0
22  1 1 2   0   0  7.577558e+02  1.722078e+03 -1.273711e+03  2.272023e+03 0.0 0.0 9.0
#pdf 21 21 4.198768e-01 3.337988e-01 5000.0 8.143081e-03 2.381067e-02
</event>
<event>
4 6 1.0 5000.0 7.905138e-03 7.739137e-02
21 -1 0 0 101 102  0.000000e+00  0.000000e+00  2.125968e+03  2.125968e+03 0.0 0.0 9.0
21 -1 0 0 103 101  0.000000e+00  0.000000e+00 -2.961200e+03  2.961200e+03 0.0 0.0 9.0
21  1 1 2 103 102  1.258592e+03  9.870446e+02 -2.377370e+03  2.865344e+03 0.0 0.0 9.0
22  1 1 2   0   0 -1.258592e+03 -9.870446e+02  1.542138e+03  2.221824e+03 0.0 0.0 9.0
#pdf 21 21 3.270720e-01 4.555692e-01 5000.0 2.585619e-02 5.129328e-03
</event>
<event>
4 6 1.0 5000.0 7.905138e-03 7.739137e-02
21 -1 0 0 101 102  0.000000e+00  0.000000e+00  2.570043e+03  2.570043e+03 0.0 0.0 9.0
21 -1 0 0 103 101  0.000000e+00  0.000000e+00 -1.900116e+03  1.900116e+03 0.0 0.0 9.0
21  1 1 2 103 102 -1.484486e+03 -1.092541e+03 -8.979921e+02  2.050301e+03 0.0 0.0 9.0
22  1 1 2   0   0  1.484486e+03  1.092541e+03  1.567919e+03  2.419858e+03 0.0 0.0 9.0
#pdf 21 21 3.953913e-01 2.923256e-01 5000.0 1.110466e-02 3.960633e-02
</event>
<event>
4 6 1.0 5000.0 7.905138e-03 7.739137e-02
21 -1 0 0 101 102  0.000000e+00  0.000000e+00  2.953943e+03  2.953943e+03 0.0 0.0 9.0
21 -1 0 0 103 101  0.000000e+00  0.000000e+00 -1.599716e+03  1.599716e+03 0.0 0.0 9.0
22  1 1 2   0   0  3.156748e+02 -2.147398e+03  5.509847e+02  2.239320e+03 0.0 0.0 9.0
21  1 1 2 103 102 -3.156748e+02  2.147398e+03  8.032422e+02  2.314339e+03 0.0 0.0 9.0
#pdf 21 21 4.544528e-01 2.461102e-01 5000.0 5.205693e-03 6.997167e-02
</event>
<event>
4 6 1.0 5000.0 7.905138e-03 7.739137e-02
21 -1 0 0 101 102  0.000000e+00  0.000000e+00  3.580809e+03  3.580809e+03 0.0 0.0 9.0
21 -1 0 0 103 101  0.000000e+00  0.000000e+00 -1.707515e+03  1.707515e+03 0.0 0.0 9.0
22  1 1 2   0   0  8.056790e+02 -2.815482e+02 -1.545024e+03  1.765075e+03 0.0 0.0 9.0
21  1 1 2 103 102 -8.056790e+02  2.815482e+02  3.418318e+03  3.523249e+03 0.0 0.0 9.0
#pdf 21 21 5.508936e-01 2.626947e-01 5000.0 1.363405e-03 5.695947e-02
</event>
<event>
4 6 1.0 5000.0 7.905138e-03 7.739137e-02
21 -1 0 0 101 102  0.000000e+00  0.000000e+00  2.153978e+03  2.153978e+03 0.0 0.0 9.0
21 -1 0 0 103 101  0.000000e+00  0.000000e+00 -2.976164e+03  2.976164e+03 0.0 0.0 9.0
21  1 1 2 103 102 -2.092462e+03 -2.268103e+02 -1.836915e+03  2.793581e+03 0.0 0.0 9.0
22  1 1 2   0   0  2.092462e+03  2.268103e+02  1.014728e+03  2.336560e+03 0.0 0.0 9.0
#pdf 21 21 3.313812e-01 4.578714e-01 5000.0 2.452771e-02 4.974668e-03
</event>
<event>
4 6 1.0 5000.0 7.905138e-03 7.739137e-02
21 -1 0 0 103 101  0.000000e+00  0.000000e+00  3.553164e+03  3.553164e+03 0.0 0.0 9.0
21 -1 0 0 101 102  0.000000e+00  0.000000e+00 -1.762612e+03  1.762612e+03 0.0 0.0 9.0
21  1 1 2 103 102  9.161260e+02  1.475509e+03 -1.018337e+03  2.013312e+03 0.0 0.0 9.0
22  1 1 2   0   0 -9.161260e+02 -1.475509e+03  2.808889e+03  3.302464e+03 0.0 0.0 9.0
#pdf 21 21 5.466406e-01 2.711711e-01 5000.0 1.452708e-03 5.130132e-02
</event>
<event>
4 6 1.0 5000.0 7.905138e-03 7.739137e-02
21 -1 0 0 103 101  0.000000e+00  0.000000e+00  2.096687e+03  2.096687e+03 0.0 0.0 9.0
21 -1 0 0 101 102  0.000000e+00  0.000000e+00 -2.700092e+03  2.700092e+03 0.0 0.0 9.0
21  1 1 2 103 102  5.701793e+02 -2.199860e+03  4.087518e+02  2.309019e+03 0.0 0.0 9.0
22  1 1 2   0   0 -5.701793e+02  2.199860e+03 -1.012156e+03  2.487760e+03 0.0 0.0 9.0
#pdf 21 21 3.225673e-01 4.153988e-01 5000.0 2.732056e-02 8.620857e-03
</event>
<event>
4 6 1.0 5000.0 7.905138e-03 7.739137e-02
21 -1 0 0 103 101  0.000000e+00  0.000000e+00  2.132888e+03  2.132888e+03 0.0 0.0 9.0
21 -1 0 0 101 102  0.000000e+00  0.000000e+00 -2.939472e+03  2.939472e+03 0.0 0.0 9.0
21  1 1 2 103 102 -8.112045e+02 -2.349587e+03 -7.087632e+02  2.584754e+03 0.0 0.0 9.0
22  1 1 2   0   0  8.112045e+02  2.349587e+03 -9.782082e+01  2.487605e+03 0.0 0.0 9.0
#pdf 21 21 3.281366e-01 4.522264e-01 5000.0 2.552170e-02 5.360240e-03
</event>
<event>
4 6 1.0 5000.0 7.905138e-03 7.739137e-02
21 -1 0 0 101 102  0.000000e+00  0.000000e+00  2.270826e+03  2.270826e+03 0.0 0.0 9.0
21 -1 0 0 103 101  0.000000e+00  0.000000e+00 -2.881343e+03  2.881343e+03 0.0 0.0 9.0
22  1 1 2   0   0 -2.693266e+02 -5.420220e+02 -2.808191e+03  2.872675e+03 0.0 0.0 9.0
21  1 1 2 103 102  2.693266e+02  5.420220e+02  2.197673e+03  2.279494e+03 0.0 0.0 9.0
#pdf 21 21 3.493578e-01 4.432836e-01 5000.0 1.967473e-02 6.024868e-03
</event>
<event>
4 6 1.0 5000.0 7.905138e-03 7.739137e-02
21 -1 0 0 101 102  0.000000e+00  0.000000e+00  2.797572e+03  2.797572e+03 0.0 0.0 9.0
21 -1 0 0 103 101  0.000000e+00  0.000000e+00 -2.333965e+03  2.333965e+03 0.0 0.0 9.0
21  1 1 2 103 102  1.290864e+03  4.586146e+02 -1.934083e+03  2.370092e+03 0.0 0.0 9.0
22  1 1 2   0   0 -1.290864e+03 -4.586146e+02  2.397690e+03  2.761445e+03 0.0 0.0 9.0
#pdf 21 21 4.303957e-01 3.590715e-01 5000.0 7.114907e-03 1.744572e-02
</event>
<event>
4 6 1.0 5000.0 7.905138e-03 7.739137e-02
21 -1 0 0 101 102  0.000000e+00  0.000000e+00  2.856349e+03  2.856349e+03 0.0 0.0 9.0
21 -1 0 0 103 101  0.000000e+00  0.000000e+00 -1.672881e+03  1.672881e+03 0.0 0.0 9.0
21  1 1 2 103 102 -1.648772e+03 -1.381714e+03  1.894941e+02  2.159512e+03 0.0 0.0 9.0
22  1 1 2   0   0  1.648772e+03  1.381714e+03  9.939734e+02  2.369719e+03 0.0 0.0 9.0
#pdf 21 21 4.394383e-01 2.573664e-01 5000.0 6.336595e-03 6.088532e-02
</event>
<event>
4 6 1.0 5000.0 7.905138e-03 7.739137e-02
21 -1 0 0 101 102  0.000000e+00  0.000000e+00  1.106505e+03  1.106505e+03 0.0 0.0 9.0
21 -1 0 0 103 101  0.000000e+00  0.000000e+00 -3.963639e+03  3.963639e+03 0.0 0.0 9.0
21  1 1 2 103 102  1.880182e+03  7.961908e+02 -1.992178e+03  2.852679e+03 0.0 0.0 9.0
22  1 1 2   0   0 -1.880182e+03 -7.961908e+02 -8.649555e+02  2.217465e+03 0.0 0.0 9.0
#pdf 21 21 1.702316e-01 6.097906e-01 5000.0 1.870562e-01 5.480754e-04
</event>
<event>
4 6 1.0 5000.0 7.905138e-03 7.739137e-02
21 -1 0 0 103 101  0.000000e+00  0.000000e+00  2.697742e+03  2.697742e+03 0.0 0.0 9.0
21 -1 0 0 101 102  0.000000e+00  0.000000e+00 -2.132731e+03  2.132731e+03 0.0 0.0 9.0
21  1 1 2 103 102 -1.628412e+03 -8.244381e+02  1.849583e+03  2.598534e+03 0.0 0.0 9.0
22  1 1 2   0   0  1.628412e+03  8.244381e+02 -1.284572e+03  2.231939e+03 0.0 0.0 9.0
#pdf 21 21 4.150372e-01 3.281125e-01 5000.0 8.660593e-03 2.552922e-02
</event>
<event>
4 6 1.0 5000.0 7.905138e-03 7.739137e-02
21 -1 0 0 103 101  0.000000e+00  0.000000e+00  2.329479e+03  2.329479e+03 0.0 0.0 9.0
21 -1 0 0 101 102  0.000000e+00  0.000000e+00 -2.374694e+03  2.374694e+03 0.0 0.0 9.0
21  1 1 2 103 102  1.086711e+03  1.015192e+03 -1.844844e+03  2.369601e+03 0.0 0.0 9.0
22  1 1 2   0   0 -1.086711e+03 -1.015192e+03  1.799630e+03  2.334572e+03 0.0 0.0 9.0
#pdf 21 21 3.583815e-01 3.653375e-01 5000.0 1.759398e-02 1.615285e-02
</event>
<event>
4 6 1.0 5000.0 7.905138e-03 7.739137e-02
21 -1 0 0 103 101  0.000000e+00  0.000000e+00  2.076614e+03  2.076614e+03 0.0 0.0 9.0
21 -1 0 0 101 102  0.000000e+00  0.000000e+00 -2.937400e+03  2.937400e+03 0.0 0.0 9.0
22  1 1 2   0   0 -3.899458e+02 -1.817923e+03  1.219820e+03  2.223705e+03 0.0 0.0 9.0
21  1 1 2 103 102  3.899458e+02  1.817923e+03 -2.080606e+03  2.790309e+03 0.0 0.0 9.0
#pdf 21 21 3.194791e-01 4.519076e-01 5000.0 2.837344e-02 5.382586e-03
</event>
<event>
4 6 1.0 5000.0 7.905138e-03 7.739137e-02
21 -1 0 0 101 102  0.000000e+00  0.000000e+00  2.503685e+03  2.503685e+03 0.0 0.0 9.0
21 -1 0 0 103 101  0.000000e+00  0.000000e+00 -2.275336e+03  2.275336e+03 0.0 0.0 9.0
22  1 1 2   0   0  6.659645e+02 -1.749971e+03  1.596008e+03  2.460315e+03 0.0 0.0 9.0
21  1 1 2 103 102 -6.659645e+02  1.749971e+03 -1.367659e+03  2.318706e+03 0.0 0.0 9.0
#pdf 21 21 3.851823e-01 3.500517e-01 5000.0 1.262776e-02 1.950733e-02
</event>
<event>
4 6 1.0 5000.0 7.905138e-03 7.739137e-02
21 -1 0 0 103 101  0.000000e+00  0.000000e+00  2.708509e+03  2.708509e+03 0.0 0.0 9.0
21 -1 0 0 101 102  0.000000e+00  0.000000e+00 -2.261577e+03  2.261577e+03 0.0 0.0 9.0
22  1 1 2   0   0 -2.262371e+03  7.713335e+02  8.681255e+02  2.543014e+03 0.0 0.0 9.0
21  1 1 2 103 102  2.262371e+03 -7.713335e+02 -4.211941e+02  2.427072e+03 0.0 0.0 9.0
#pdf 21 21 4.166937e-01 3.479350e-01 5000.0 8.480012e-03 2.002169e-02
</event>
<event>
4 6 1.0 5000.0 7.905138e-03 7.739137e-02
21 -1 0 0 103 101  0.000000e+00  0.000000e+00  1.462811e+03  1.462811e+03 0.0 0.0 9.0
21 -1 0 0 101 102  0.000000e+00  0.000000e+00 -3.461023e+03  3.461023e+03 0.0 0.0 9.0
22  1 1 2   0   0 -1.405441e+03 -1.755417e+03 -1.084331e+03  2.496503e+03 0.0 0.0 9.0
21  1 1 2 103 102  1.405441e+03  1.755417e+03 -9.138814e+02  2.427331e+03 0.0 0.0 9.0
#pdf 21 21 2.250478e-01 5.324651e-01 5000.0 9.119048e-02 1.785682e-03
</event>
<event>
4 6 1.0 5000.0 7.905138e-03 7.739137e-02
21 -1 0 0 101 102  0.000000e+00  0.000000e+00  1.799177e+03  1.799177e+03 0.0 0.0 9.0
21 -1 0 0 103 101  0.000000e+00  0.000000e+00 -2.785631e+03  2.785631e+03 0.0 0.0 9.0
22  1 1 2   0   0 -9.651145e+02 -6.459514e+02 -2.453062e+03  2.714076e+03 0.0 0.0 9.0
21  1 1 2 103 102  9.651145e+02  6.459514e+02  1.466608e+03  1.870732e+03 0.0 0.0 9.0
#pdf 21 21 2.767965e-01 4.285586e-01 5000.0 4.787519e-02 7.284436e-03
</event>
<event>
4 6 1.0 5000.0 7.905138e-03 7.739137e-02
21 -1 0 0 103 101  0.000000e+00  0.000000e+00  3.881410e+03  3.881410e+03 0.0 0.0 9.0
21 -1 0 0 101 102  0.000000e+00  0.000000e+00 -1.552364e+03  1.552364e+03 0.0 0.0 9.0
22  1 1 2   0   0  7.134488e+02 -1.999799e+03 -1.987885e+02  2.132539e+03 0.0 0.0 9.0
21  1 1 2 103 102 -7.134488e+02  1.999799e+03  2.527835e+03  3.301235e+03 0.0 0.0 9.0
#pdf 21 21 5.971400e-01 2.388252e-01 5000.0 6.716866e-04 7.673582e-02
</event>
<event>
4 6 1.0 5000.0 7.905138e-03 7.739137e-02
21 -1 0 0 103 101  0.000000e+00  0.000000e+00  1.899075e+03  1.899075e+03 0.0 0.0 9.0
21 -1 0 0 101 102  0.000000e+00  0.000000e+00 -3.189822e+03  3.189822e+03 0.0 0.0 9.0
22  1 1 2   0   0  4.682473e+02 -2.411657e+03 -7.999872e+02  2.583665e+03 0.0 0.0 9.0
21  1 1 2 103 102 -4.682473e+02  2.411657e+03 -4.907601e+02  2.505233e+03 0.0 0.0 9.0
#pdf 21 21 2.921654e-01 4.907419e-01 5000.0 3.968353e-02 3.199994e-03
</event>
<event>
4 6 1.0 5000.0 7.905138e-03 7.739137e-02
21 -1 0 0 101 102  0.000000e+00  0.000000e+00  3.013260e+03  3.013260e+03 0.0 0.0 9.0
21 -1 0 0 103 101  0.000000e+00  0.000000e+00 -2.079931e+03  2.079931e+03 0.0 0.0 9.0
21  1 1 2 103 102  2.331965e+03  2.756693e+02 -4.162233e+02  2.384806e+03 0.0 0.0 9.0
22  1 1 2   0   0 -2.331965e+03 -2.756693e+02  1.349553e+03  2.708385e+03 0.0 0.0 9.0
#pdf 21 21 4.635785e-01 3.199893e-01 5000.0 4.611310e-03 2.819659e-02
</event>
<event>
4 6 1.0 5000.0 7.905138e-03 7.739137e-02
21 -1 0 0 101 102  0.000000e+00  0.000000e+00  1.577589e+03  1.577589e+03 0.0 0.0 9.0
21 -1 0 0 103 101  0.000000e+00  0.000000e+00 -3.635772e+03  3.635772e+03 0.0 0.0 9.0
22  1 1 2   0   0 -2.384080e+03 -1.771864e+02 -8.731598e+02  2.545121e+03 0.0 0.0 9.0
21  1 1 2 103 102  2.384080e+03  1.771864e+02 -1.185023e+03  2.668241e+03 0.0 0.0 9.0
#pdf 21 21 2.427061e-01 5.593496e-01 5000.0 7.307902e-02 1.204921e-03
</event>
<event>
4 6 1.0 5000.0 7.905138e-03 7.739137e-02
21 -1 0 0 101 102  0.000000e+00  0.000000e+00  2.959764e+03  2.959764e+03 0.0 0.0 9.0
21 -1 0 0 103 101  0.000000e+00  0.000000e+00 -1.651567e+03  1.651567e+03 0.0 0.0 9.0
21  1 1 2 103 102 -1.309520e+03 -1.315448e+03 -5.986197e+02  1.950280e+03 0.0 0.0 9.0
22  1 1 2   0   0  1.309520e+03  1.315448e+03  1.906816e+03  2.661051e+03 0.0 0.0 9.0
#pdf 21 21 4.553483e-01 2.540873e-01 5000.0 5.144375e-03 6.343728e-02
</event>
<event>
4 6 1.0 5000.0 7.905138e-03 7.739137e-02
21 -1 0 0 101 102  0.000000e+00  0.000000e+00  2.209097e+03  2.209097e+03 0.0 0.0 9.0
21 -1 0 0 103 101  0.000000e+00  0.000000e+00 -2.990184e+03  2.990184e+03 0.0 0.0 9.0
21  1 1 2 103 102  4.900735e+02 -1.956659e+03 -2.001597e+03  2.841668e+03 0.0 0.0 9.0
22  1 1 2   0   0 -4.900735e+02  1.956659e+03  1.220510e+03  2.357612e+03 0.0 0.0 9.0
#pdf 21 21 3.398610e-01 4.600282e-01 5000.0 2.210048e-02 4.833690e-03
</event>
<event>
4 6 1.0 5000.0 7.905138e-03 7.739137e-02
21 -1 0 0 103 101  0.000000e+00  0.000000e+00  3.023162e+03  3.023162e+03 0.0 0.0 9.0
21 -1 0 0 101 102  0.000000e+00  0.000000e+00 -1.913463e+03  1.913463e+03 0.0 0.0 9.0
22  1 1 2   0   0  9.150703e+02  2.210642e+03  3.025919e+02  2.411608e+03 0.0 0.0 9.0
21  1 1 2 103 102 -9.150703e+02 -2.210642e+03  8.071071e+02  2.525017e+03 0.0 0.0 9.0
#pdf 21 21 4.651018e-01 2.943789e-01 5000.0 4.519394e-03 3.862633e-02
</event>
<event>
4 6 1.0 5000.0 7.905138e-03 7.739137e-02
21 -1 0 0 103 101  0.000000e+00  0.000000e+00  4.086429e+03  4.086429e+03 0.0 0.0 9.0
21 -1 0 0 101 102  0.000000e+00  0.000000e+00 -1.242005e+03  1.242005e+03 0.0 0.0 9.0
21  1 1 2 103 102  2.018315e+03 -9.517118e+02  1.055772e+03  2.468603e+03 0.0 0.0 9.0
22  1 1 2   0   0 -2.018315e+03  9.517118e+02  1.788653e+03  2.859830e+03 0.0 0.0 9.0
#pdf 21 21 6.286814e-01 1.910776e-01 5000.0 4.004835e-04 1.414141e-01
</event>
<event>
4 6 1.0 5000.0 7.905138e-03 7.739137e-02
21 -1 0 0 101 102  0.000000e+00  0.000000e+00  2.121923e+03  2.121923e+03 0.0 0.0 9.0
21 -1 0 0 103 101  0.000000e+00  0.000000e+00 -2.313342e+03  2.313342e+03 0.0 0.0 9.0
22  1 1 2   0   0 -1.542237e+02  7.966940e+02  1.967821e+03  2.128574e+03 0.0 0.0 9.0
21  1 1 2 103 102  1.542237e+02 -7.966940e+02 -2.159240e+03  2.306691e+03 0.0 0.0 9.0
#pdf 21 21 3.264497e-01 3.558988e-01 5000.0 2.605370e-02 1.814067e-02
</event>
<event>
4 6 1.0 5000.0 7.905138e-03 7.739137e-02
21 -1 0 0 103 101  0.000000e+00  0.000000e+00  3.343833e+03  3.343833e+03 0.0 0.0 9.0
21 -1 0 0 101 102  0.000000e+00  0.000000e+00 -1.944538e+03  1.944538e+03 0.0 0.0 9.0
21  1 1 2 103 102  1.367738e+03  8.939443e+01 -1.530057e+03  2.054209e+03 0.0 0.0 9.0
22  1 1 2   0   0 -1.367738e+03 -8.939443e+01  2.929353e+03  3.234162e+03 0.0 0.0 9.0
#pdf 21 21 5.144359e-01 2.991596e-01 5000.0 2.306000e-03 3.639666e-02
</event>
<event>
4 6 1.0 5000.0 7.905138e-03 7.739137e-02
21 -1 0 0 101 102  0.000000e+00  0.000000e+00  2.018161e+03  2.018161e+03 0.0 0.0 9.0
21 -1 0 0 103 101  0.000000e+00  0.000000e+00 -2.273779e+03  2.273779e+03 0.0 0.0 9.0
21  1 1 2 103 102 -1.397009e+02  1.259647e+03  1.602290e+03  2.042929e+03 0.0 0.0 9.0
22  1 1 2   0   0  1.397009e+02 -1.259647e+03 -1.857908e+03  2.249010e+03 0.0 0.0 9.0
#pdf 21 21 3.104863e-01 3.498121e-01 5000.0 3.170468e-02 1.956499e-02
</event>
<event>
4 6 1.0 5000.0 7.905138e-03 7.739137e-02
21 -1 0 0 103 101  0.000000e+00  0.000000e+00  1.797322e+03  1.797322e+03 0.0 0.0 9.0
21 -1 0 0 101 102  0.000000e+00  0.000000e+00 -2.968200e+03  2.968200e+03 0.0 0.0 9.0
22  1 1 2   0   0 -1.814317e+03  2.126110e+02  8.727159e+02  2.024496e+03 0.0 0.0 9.0
21  1 1 2 103 102  1.814317e+03 -2.126110e+02 -2.043594e+03  2.741026e+03 0.0 0.0 9.0
#pdf 21 21 2.765111e-01 4.566461e-01 5000.0 4.804342e-02 5.056483e-03
</event>
<event>
4 6 1.0 5000.0 7.905138e-03 7.739137e-02
21 -1 0 0 101 102  0.000000e+00  0.000000e+00  3.532937e+03  3.532937e+03 0.0 0.0 9.0
21 -1 0 0 103 101  0.000000e+00  0.000000e+00 -1.772415e+03  1.772415e+03 0.0 0.0 9.0
22  1 1 2   0   0 -2.386965e+03 -2.994036e+02  1.610543e+03  2.895012e+03 0.0 0.0 9.0
21  1 1 2 103 102  2.386965e+03  2.994036e+02  1.499792e+02  2.410340e+03 0.0 0.0 9.0
#pdf 21 21 5.435287e-01 2.726792e-01 5000.0 1.520234e-03 5.035926e-02
</event>
<event>
4 6 1.0 5000.0 7.905138e-03 7.739137e-02
21 -1 0 0 103 101  0.000000e+00  0.000000e+00  2.409554e+03  2.409554e+03 0.0 0.0 9.0
21 -1 0 0 101 102  0.000000e+00  0.000000e+00 -2.682122e+03  2.682122e+03 0.0 0.0 9.0
21  1 1 2 103 102  1.344679e+03 -7.506584e+02  1.889260e+03  2.437407e+03 0.0 0.0 9.0
22  1 1 2   0   0 -1.344679e+03  7.506584e+02 -2.161827e+03  2.654269e+03 0.0 0.0 9.0
#pdf 21 21 3.707007e-01 4.126341e-01 5000.0 1.510411e-02 8.929370e-03
</event>
<event>
4 6 1.0 5000.0 7.905138e-03 7.739137e-02
21 -1 0 0 103 101  0.000000e+00  0.000000e+00  3.665510e+03  3.665510e+03 0.0 0.0 9.0
21 -1 0 0 101 102  0.000000e+00  0.000000e+00 -1.562632e+03  1.562632e+03 0.0 0.0 9.0
22  1 1 2   0   0  7.623779e+02 -1.860107e+03  2.469945e+03  3.184626e+03 0.0 0.0 9.0
21  1 1 2 103 102 -7.623779e+02  1.860107e+03 -3.670658e+02  2.043516e+03 0.0 0.0 9.0
#pdf 21 21 5.639247e-01 2.404049e-01 5000.0 1.124807e-03 7.523419e-02
</event>
<event>
4 6 1.0 5000.0 7.905138e-03 7.739137e-02
21 -1 0 0 101 102  0.000000e+00  0.000000e+00  3.105261e+03  3.105261e+03 0.0 0.0 9.0
21 -1 0 0 103 101  0.000000e+00  0.000000e+00 -1.951479e+03  1.951479e+03 0.0 0.0 9.0
22  1 1 2   0   0 -1.016199e+03 -8.720730e+02  2.698448e+03  3.012440e+03 0.0 0.0 9.0
21  1 1 2 103 102  1.016199e+03  8.720730e+02 -1.544666e+03  2.044300e+03 0.0 0.0 9.0
#pdf 21 21 4.777325e-01 3.002275e-01 5000.0 3.817646e-03 3.590942e-02
</event>
<event>
4 6 1.0 5000.0 7.905138e-03 7.739137e-02
21 -1 0 0 101 102  0.000000e+00  0.000000e+00  2.827746e+03  2.827746e+03 0.0 0.0 9.0
21 -1 0 0 103 101  0.000000e+00  0.000000e+00 -2.265480e+03  2.265480e+03 0.0 0.0 9.0
22  1 1 2   0   0 -8.557674e+02 -1.296135e+03 -1.729631e+03  2.324635e+03 0.0 0.0 9.0
21  1 1 2 103 102  8.557674e+02  1.296135e+03  2.291897e+03  2.768591e+03 0.0 0.0 9.0
#pdf 21 21 4.350378e-01 3.485354e-01 5000.0 6.705372e-03 1.987465e-02
</event>
<event>
4 6 1.0 5000.0 7.905138e-03 7.739137e-02
21 -1 0 0 101 102  0.000000e+00  0.000000e+00  3.393634e+03  3.393634e+03 0.0 0.0 9.0
21 -1 0 0 103 101  0.000000e+00  0.000000e+00 -1.868278e+03  1.868278e+03 0.0 0.0 9.0
22  1 1 2   0   0 -1.723447e+03 -9.336334e+02  2.414198e+03  3.109709e+03 0.0 0.0 9.0
21  1 1 2 103 102  1.723447e+03  9.336334e+02 -8.888419e+02  2.152203e+03 0.0 0.0 9.0
#pdf 21 21 5.220976e-01 2.874274e-01 5000.0 2.069383e-03 4.202763e-02
</event>
<event>
4 6 1.0 5000.0 7.905138e-03 7.739137e-02
21 -1 0 0 101 102  0.000000e+00  0.000000e+00  2.280589e+03  2.280589e+03 0.0 0.0 9.0
21 -1 0 0 103 101  0.000000e+00  0.000000e+00 -2.732275e+03  2.732275e+03 0.0 0.0 9.0
21  1 1 2 103 102 -5.522053e+02  7.822240e+02  2.088869e+03  2.297864e+03 0.0 0.0 9.0
22  1 1 2   0   0  5.522053e+02 -7.822240e+02 -2.540555e+03  2.715000e+03 0.0 0.0 9.0
#pdf 21 21 3.508599e-01 4.203500e-01 5000.0 1.931374e-02 8.094077e-03
</event>
<event>
4 6 1.0 5000.0 7.905138e-03 7.739137e-02
21 -1 0 0 103 101  0.000000e+00  0.000000e+00  2.310656e+03  2.310656e+03 0.0 0.0 9.0
21 -1 0 0 101 102  0.000000e+00  0.000000e+00 -2.469520e+03  2.469520e+03 0.0 0.0 9.0
22  1 1 2   0   0 -2.248724e+03 -8.057576e+02 -9.380656e+01  2.390566e+03 0.0 0.0 9.0
21  1 1 2 103 102  2.248724e+03  8.057576e+02 -6.505730e+01  2.389610e+03 0.0 0.0 9.0
#pdf 21 21 3.554855e-01 3.799261e-01 5000.0 1.823391e-02 1.348821e-02
</event>
<event>
4 6 1.0 5000.0 7.905138e-03 7.739137e-02
21 -1 0 0 101 102  0.000000e+00  0.000000e+00  3.001414e+03  3.001414e+03 0.0 0.0 9.0
21 -1 0 0 103 101  0.000000e+00  0.000000e+00 -2.200950e+03  2.200950e+03 0.0 0.0 9.0
21  1 1 2 103 102  4.408009e+01 -1.346592e+03  2.615379e+03  2.942016e+03 0.0 0.0 9.0
22  1 1 2   0   0 -4.408009e+01  1.346592e+03 -1.814915e+03  2.260347e+03 0.0 0.0 9.0
#pdf 21 21 4.617560e-01 3.386076e-01 5000.0 4.723867e-03 2.244270e-02
</event>
<event>
4 6 1.0 5000.0 7.905138e-03 7.739137e-02
21 -1 0 0 103 101  0.000000e+00  0.000000e+00  3.111259e+03  3.111259e+03 0.0 0.0 9.0
21 -1 0 0 101 102  0.000000e+00  0.000000e+00 -1.992874e+03  1.992874e+03 0.0 0.0 9.0
21  1 1 2 103 102  9.037305e+02  1.482220e+03 -1.270385e+03  2.151181e+03 0.0 0.0 9.0
22  1 1 2   0   0 -9.037305e+02 -1.482220e+03  2.388769e+03  2.952952e+03 0.0 0.0 9.0
#pdf 21 21 4.786552e-01 3.065961e-01 5000.0 3.770361e-03 3.325912e-02
</event>
<event>
4 6 1.0 5000.0 7.905138e-03 7.739137e-02
21 -1 0 0 101 102  0.000000e+00  0.000000e+00  2.383819e+03  2.383819e+03 0.0 0.0 9.0
21 -1 0 0 103 101  0.000000e+00  0.000000e+00 -2.477807e+03  2.477807e+03 0.0 0.0 9.0
22  1 1 2   0   0  6.776236e+02  1.990321e+03 -1.266275e+03  2.454385e+03 0.0 0.0 9.0
21  1 1 2 103 102 -6.776236e+02 -1.990321e+03  1.172286e+03  2.407241e+03 0.0 0.0 9.0
#pdf 21 21 3.667413e-01 3.812010e-01 5000.0 1.587208e-02 1.327522e-02
</event>
<event>
4 6 1.0 5000.0 7.905138e-03 7.739137e-02
21 -1 0 0 101 102  0.000000e+00  0.000000e+00  2.339061e+03  2.339061e+03 0.0 0.0 9.0
21 -1 0 0 103 101  0.000000e+00  0.000000e+00 -2.693580e+03  2.693580e+03 0.0 0.0 9.0
21  1 1 2 103 102  3.229420e+02 -6.016560e+02 -2.598677e+03  2.686894e+03 0.0 0.0 9.0
22  1 1 2   0   0 -3.229420e+02  6.016560e+02  2.244158e+03  2.345747e+03 0.0 0.0 9.0
#pdf 21 21 3.598556e-01 4.143969e-01 5000.0 1.727901e-02 8.731404e-03
</event>
<event>
4 6 1.0 5000.0 7.905138e-03 7.739137e-02
21 -1 0 0 101 102  0.000000e+00  0.000000e+00  1.856716e+03  1.856716e+03 0.0 0.0 9.0
21 -1 0 0 103 101  0.000000e+00  0.000000e+00 -3.242587e+03  3.242587e+03 0.0 0.0 9.0
21  1 1 2 103 102  8.286235e+01 -1.337876e+03  1.442630e+03  1.969254e+03 0.0 0.0 9.0
22  1 1 2   0   0 -8.286235e+01  1.337876e+03 -2.828502e+03  3.130048e+03 0.0 0.0 9.0
#pdf 21 21 2.856485e-01 4.988595e-01 5000.0 4.294426e-02 2.863237e-03
</event>
<event>
4 6 1.0 5000.0 7.905138e-03 7.739137e-02
21 -1 0 0 103 101  0.000000e+00  0.000000e+00  2.840120e+03  2.840120e+03 0.0 0.0 9.0
21 -1 0 0 101 102  0.000000e+00  0.000000e+00 -2.132111e+03  2.132111e+03 0.0 0.0 9.0
22  1 1 2   0   0 -2.399403e+03  5.436362e+02  3.007833e+02  2.478537e+03 0.0 0.0 9.0
21  1 1 2 103 102  2.399403e+03 -5.436362e+02  4.072251e+02  2.493694e+03 0.0 0.0 9.0
#pdf 21 21 4.369415e-01 3.280171e-01 5000.0 6.543899e-03 2.555901e-02
</event>
<event>
4 6 1.0 5000.0 7.905138e-03 7.739137e-02
21 -1 0 0 103 101  0.000000e+00  0.000000e+00  1.784888e+03  1.784888e+03 0.0 0.0 9.0
21 -1 0 0 101 102  0.000000e+00  0.000000e+00 -3.431785e+03  3.431785e+03 0.0 0.0 9.0
22  1 1 2   0   0 -1.570391e+03  1.905709e+03 -9.982175e+02  2.663511e+03 0.0 0.0 9.0
21  1 1 2 103 102  1.570391e+03 -1.905709e+03 -6.486791e+02  2.553162e+03 0.0 0.0 9.0
#pdf 21 21 2.745982e-01 5.279669e-01 5000.0 4.918591e-02 1.904472e-03
</event>
<event>
4 6 1.0 5000.0 7.905138e-03 7.739137e-02
21 -1 0 0 101 102  0.000000e+00  0.000000e+00  1.653793e+03  1.653793e+03 0.0 0.0 9.0
21 -1 0 0 103 101  0.000000e+00  0.000000e+00 -3.271166e+03  3.271166e+03 0.0 0.0 9.0
22  1 1 2   0   0  9.778800e+02 -1.088067e+03 -2.723093e+03  3.091177e+03 0.0 0.0 9.0
21  1 1 2 103 102 -9.778800e+02  1.088067e+03  1.105721e+03  1.833782e+03 0.0 0.0 9.0
#pdf 21 21 2.544297e-01 5.032563e-01 5000.0 6.316648e-02 2.694030e-03
</event>
<event>
4 6 1.0 5000.0 7.905138e-03 7.739137e-02
21 -1 0 0 101 102  0.000000e+00  0.000000e+00  3.910263e+03  3.910263e+03 0.0 0.0 9.0
21 -1 0 0 103 101  0.000000e+00  0.000000e+00 -1.149646e+03  1.149646e+03 0.0 0.0 9.0
22  1 1 2   0   0  1.813347e+03 -1.018265e+03  1.872769e+03  2.798634e+03 0.0 0.0 9.0
21  1 1 2 103 102 -1.813347e+03  1.018265e+03  8.878481e+02  2.261275e+03 0.0 0.0 9.0
#pdf 21 21 6.015789e-01 1.768686e-01 5000.0 6.259253e-04 1.711215e-01
</event>
<event>
4 6 1.0 5000.0 7.905138e-03 7.739137e-02
21 -1 0 0 103 101  0.000000e+00  0.000000e+00  2.460428e+03  2.460428e+03 0.0 0.0 9.0
21 -1 0 0 101 102  0.000000e+00  0.000000e+00 -2.242985e+03  2.242985e+03 0.0 0.0 9.0
22  1 1 2   0   0  1.715579e+03  1.299642e+03 -8.337867e+02  2.308133e+03 0.0 0.0 9.0
21  1 1 2 103 102 -1.715579e+03 -1.299642e+03  1.051229e+03  2.395279e+03 0.0 0.0 9.0
#pdf 21 21 3.785273e-01 3.450746e-01 5000.0 1.372483e-02 2.073539e-02
</event>
<event>
4 6 1.0 5000.0 7.905138e-03 7.739137e-02
21 -1 0 0 101 102  0.000000e+00  0.000000e+00  2.848924e+03  2.848924e+03 0.0 0.0 9.0
21 -1 0 0 103 101  0.000000e+00  0.000000e+00 -2.207045e+03  2.207045e+03 0.0 0.0 9.0
22  1 1 2   0   0 -1.424511e+03 -8.061036e+02  2.236085e+03  2.771121e+03 0.0 0.0 9.0
21  1 1 2 103 102  1.424511e+03  8.061036e+02 -1.594206e+03  2.284848e+03 0.0 0.0 9.0
#pdf 21 21 4.382959e-01 3.395453e-01 5000.0 6.430874e-03 2.218612e-02
</event>
<event>
4 6 1.0 5000.0 7.905138e-03 7.739137e-02
21 -1 0 0 103 101  0.000000e+00  0.000000e+00  3.329966e+03  3.329966e+03 0.0 0.0 9.0
21 -1 0 0 101 102  0.000000e+00  0.000000e+00 -1.891244e+03  1.891244e+03 0.0 0.0 9.0
21  1 1 2 103 102 -1.870602e+03  2.780650e+02  2.435436e+03  3.083476e+03 0.0 0.0 9.0
22  1 1 2   0   0  1.870602e+03 -2.780650e+02 -9.967137e+02  2.137735e+03 0.0 0.0 9.0
#pdf 21 21 5.123025e-01 2.909606e-01 5000.0 2.375934e-03 4.026799e-02
</event>
<event>
4 6 1.0 5000.0 7.905138e-03 7.739137e-02
21 -1 0 0 103 101  0.000000e+00  0.000000e+00  3.425781e+03  3.425781e+03 0.0 0.0 9.0
21 -1 0 0 101 102  0.000000e+00  0.000000e+00 -1.970566e+03  1.970566e+03 0.0 0.0 9.0
21  1 1 2 103 102  2.478222e+03  7.045722e+02  1.076264e+03  2.792195e+03 0.0 0.0 9.0
22  1 1 2   0   0 -2.478222e+03 -7.045722e+02  3.789513e+02  2.604153e+03 0.0 0.0 9.0
#pdf 21 21 5.270433e-01 3.031640e-01 5000.0 1.929610e-03 3.467232e-02
</event>
<event>
4 6 1.0 5000.0 7.905138e-03 7.739137e-02
21 -1 0 0 103 101  0.000000e+00  0.000000e+00  4.062489e+03  4.062489e+03 0.0 0.0 9.0
21 -1 0 0 101 102  0.000000e+00  0.000000e+00 -1.227867e+03  1.227867e+03 0.0 0.0 9.0
21  1 1 2 103 102  3.328981e+02 -5.882796e+02  3.938438e+03  3.996021e+03 0.0 0.0 9.0
22  1 1 2   0   0 -3.328981e+02  5.882796e+02 -1.103816e+03  1.294335e+03 0.0 0.0 9.0
#pdf 21 21 6.249983e-01 1.889026e-01 5000.0 4.263027e-04 1.456244e-01
</event>
<event>
4 6 1.0 5000.0 7.905138e-03 7.739137e-02
21 -1 0 0 101 102  0.000000e+00  0.000000e+00  3.651087e+03  3.651087e+03 0.0 0.0 9.0
21 -1 0 0 103 101  0.000000e+00  0.000000e+00 -1.413839e+03  1.413839e+03 0.0 0.0 9.0
21  1 1 2 103 102  9.149234e+02 -3.378826e+02  3.405878e+03  3.542775e+03 0.0 0.0 9.0
22  1 1 2   0   0 -9.149234e+02  3.378826e+02 -1.168629e+03  1.522151e+03 0.0 0.0 9.0
#pdf 21 21 5.617058e-01 2.175137e-01 5000.0 1.163191e-03 1.004245e-01
</event>
<event>
4 6 1.0 5000.0 7.905138e-03 7.739137e-02
21 -1 0 0 103 101  0.000000e+00  0.000000e+00  1.589148e+03  1.589148e+03 0.0 0.0 9.0
21 -1 0 0 101 102  0.000000e+00  0.000000e+00 -3.760285e+03  3.760285e+03 0.0 0.0 9.0
21  1 1 2 103 102  8.497564e+02  9.518838e+02 -3.366982e+03  3.600658e+03 0.0 0.0 9.0
22  1 1 2   0   0 -8.497564e+02 -9.518838e+02  1.195845e+03  1.748775e+03 0.0 0.0 9.0
#pdf 21 21 2.444843e-01 5.785054e-01 5000.0 7.143404e-02 8.992408e-04
</event>
<event>
4 6 1.0 5000.0 7.905138e-03 7.739137e-02
21 -1 0 0 101 102  0.000000e+00  0.000000e+00  1.868951e+03  1.868951e+03 0.0 0.0 9.0
21 -1 0 0 103 101  0.000000e+00  0.000000e+00 -3.498001e+03  3.498001e+03 0.0 0.0 9.0
21  1 1 2 103 102 -1.219394e+03  1.317651e+03 -2.725239e+03  3.263442e+03 0.0 0.0 9.0
22  1 1 2   0   0  1.219394e+03 -1.317651e+03  1.096188e+03  2.103510e+03 0.0 0.0 9.0
#pdf 21 21 2.875309e-01 5.381540e-01 5000.0 4.197502e-02 1.643206e-03
</event>
<event>
4 6 1.0 5000.0 7.905138e-03 7.739137e-02
21 -1 0 0 103 101  0.000000e+00  0.000000e+00  1.696607e+03  1.696607e+03 0.0 0.0 9.0
21 -1 0 0 101 102  0.000000e+00  0.000000e+00 -3.385496e+03  3.385496e+03 0.0 0.0 9.0
22  1 1 2   0   0 -4.270431e+02 -1.955253e+03 -2.242410e+03  3.005625e+03 0.0 0.0 9.0
21  1 1 2 103 102  4.270431e+02  1.955253e+03  5.535206e+02  2.076479e+03 0.0 0.0 9.0
#pdf 21 21 2.610165e-01 5.208456e-01 5000.0 5.816364e-02 2.106309e-03
</event>
<event>
4 6 1.0 5000.0 7.905138e-03 7.739137e-02
21 -1 0 0 101 102  0.000000e+00  0.000000e+00  2.741576e+03  2.741576e+03 0.0 0.0 9.0
21 -1 0 0 103 101  0.000000e+00  0.000000e+00 -2.190311e+03  2.190311e+03 0.0 0.0 9.0
21  1 1 2 103 102  6.816423e+02 -2.217262e+03  1.070562e+03  2.554798e+03 0.0 0.0 9.0
22  1 1 2   0   0 -6.816423e+02  2.217262e+03 -5.192968e+02  2.377090e+03 0.0 0.0 9.0
#pdf 21 21 4.217810e-01 3.369710e-01 5000.0 7.947493e-03 2.289864e-02
</event>
<event>
4 6 1.0 5000.0 7.905138e-03 7.739137e-02
21 -1 0 0 103 101  0.000000e+00  0.000000e+00  2.504122e+03  2.504122e+03 0.0 0.0 9.0
21 -1 0 0 101 102  0.000000e+00  0.000000e+00 -2.683808e+03  2.683808e+03 0.0 0.0 9.0
22  1 1 2   0   0  2.262453e+03  3.573524e+02 -1.304735e+03  2.636043e+03 0.0 0.0 9.0
21  1 1 2 103 102 -2.262453e+03 -3.573524e+02  1.125049e+03  2.551887e+03 0.0 0.0 9.0
#pdf 21 21 3.852495e-01 4.128936e-01 5000.0 1.261707e-02 8.899947e-03
</event>
<event>
4 6 1.0 5000.0 7.905138e-03 7.739137e-02
21 -1 0 0 101 102  0.000000e+00  0.000000e+00  3.624378e+03  3.624378e+03 0.0 0.0 9.0
21 -1 0 0 103 101  0.000000e+00  0.000000e+00 -1.273764e+03  1.273764e+03 0.0 0.0 9.0
22  1 1 2   0   0  1.385625e+03 -1.618419e+03  8.582665e+02  2.296924e+03 0.0 0.0 9.0
21  1 1 2 103 102 -1.385625e+03  1.618419e+03  1.492347e+03  2.601218e+03 0.0 0.0 9.0
#pdf 21 21 5.575966e-01 1.959637e-01 5000.0 1.236561e-03 1.325870e-01
</event>
<event>
4 6 1.0 5000.0 7.905138e-03 7.739137e-02
21 -1 0 0 103 101  0.000000e+00  0.000000e+00  1.601274e+03  1.601274e+03 0.0 0.0 9.0
21 -1 0 0 101 102  0.000000e+00  0.000000e+00 -3.793378e+03  3.793378e+03 0.0 0.0 9.0
22  1 1 2   0   0  2.411166e+03  3.290632e+02 -1.523068e+03  2.870843e+03 0.0 0.0 9.0
21  1 1 2 103 102 -2.411166e+03 -3.290632e+02 -6.690362e+02  2.523809e+03 0.0 0.0 9.0
#pdf 21 21 2.463499e-01 5.835967e-01 5000.0 6.976995e-02 8.312842e-04
</event>
<event>
4 6 1.0 5000.0 7.905138e-03 7.739137e-02
21 -1 0 0 101 102  0.000000e+00  0.000000e+00  1.867213e+03  1.867213e+03 0.0 0.0 9.0
21 -1 0 0 103 101  0.000000e+00  0.000000e+00 -3.355298e+03  3.355298e+03 0.0 0.0 9.0
21  1 1 2 103 102 -9.774395e+01  9.966319e+02 -3.137203e+03  3.293155e+03 0.0 0.0 9.0
22  1 1 2   0   0  9.774395e+01 -9.966319e+02  1.649117e+03  1.929356e+03 0.0 0.0 9.0
#pdf 21 21 2.872635e-01 5.161998e-01 5000.0 4.211115e-02 2.249456e-03
</event>
<event>
4 6 1.0 5000.0 7.905138e-03 7.739137e-02
21 -1 0 0 101 102  0.000000e+00  0.000000e+00  4.340287e+03  4.340287e+03 0.0 0.0 9.0
21 -1 0 0 103 101  0.000000e+00  0.000000e+00 -1.307144e+03  1.307144e+03 0.0 0.0 9.0
22  1 1 2   0   0 -2.045028e+03 -1.176260e+03  1.905539e+03  3.032624e+03 0.0 0.0 9.0
21  1 1 2 103 102  2.045028e+03  1.176260e+03  1.127603e+03  2.614807e+03 0.0 0.0 9.0
#pdf 21 21 6.677364e-01 2.010991e-01 5000.0 2.009110e-04 1.240223e-01
</event>
<event>
4 6 1.0 5000.0 7.905138e-03 7.739137e-02
21 -1 0 0 101 102  0.000000e+00  0.000000e+00  2.302262e+03  2.302262e+03 0.0 0.0 9.0
21 -1 0 0 103 101  0.000000e+00  0.000000e+00 -2.639461e+03  2.639461e+03 0.0 0.0 9.0
22  1 1 2   0   0  1.038704e+03 -1.540431e+03 -1.792538e+03  2.581672e+03 0.0 0.0 9.0
21  1 1 2 103 102 -1.038704e+03  1.540431e+03  1.455339e+03  2.360052e+03 0.0 0.0 9.0
#pdf 21 21 3.541942e-01 4.060710e-01 5000.0 1.852988e-02 9.706941e-03
</event>
<event>
4 6 1.0 5000.0 7.905138e-03 7.739137e-02
21 -1 0 0 103 101  0.000000e+00  0.000000e+00  1.637146e+03  1.637146e+03 0.0 0.0 9.0
21 -1 0 0 101 102  0.000000e+00  0.000000e+00 -3.051461e+03  3.051461e+03 0.0 0.0 9.0
21  1 1 2 103 102 -1.206024e+03  1.872329e+03 -5.093232e+02  2.284627e+03 0.0 0.0 9.0
22  1 1 2   0   0  1.206024e+03 -1.872329e+03 -9.049915e+02  2.403980e+03 0.0 0.0 9.0
#pdf 21 21 2.518686e-01 4.694555e-01 5000.0 6.521362e-02 4.265622e-03
</event>
<event>
4 6 1.0 5000.0 7.905138e-03 7.739137e-02
21 -1 0 0 101 102  0.000000e+00  0.000000e+00  1.996849e+03  1.996849e+03 0.0 0.0 9.0
21 -1 0 0 103 101  0.000000e+00  0.000000e+00 -3.228783e+03  3.228783e+03 0.0 0.0 9.0
22  1 1 2   0   0  1.508061e+02  2.455070e+03 -1.264549e+03  2.765718e+03 0.0 0.0 9.0
21  1 1 2 103 102 -1.508061e+02 -2.455070e+03  3.261479e+01  2.459914e+03 0.0 0.0 9.0
#pdf 21 21 3.072076e-01 4.967358e-01 5000.0 3.301112e-02 2.948326e-03
</event>
<event>
4 6 1.0 5000.0 7.905138e-03 7.739137e-02
21 -1 0 0 103 101  0.000000e+00  0.000000e+00  1.649831e+03  1.649831e+03 0.0 0.0 9.0
21 -1 0 0 101 102  0.000000e+00  0.000000e+00 -2.854367e+03  2.854367e+03 0.0 0.0 9.0
21  1 1 2 103 102  1.770936e+03  5.375575e+02 -1.778254e+03  2.566587e+03 0.0 0.0 9.0
22  1 1 2   0   0 -1.770936e+03 -5.375575e+02  5.737174e+02  1.937611e+03 0.0 0.0 9.0
#pdf 21 21 2.538201e-01 4.391334e-01 5000.0 6.364919e-02 6.361671e-03
</event>
<event>
4 6 1.0 5000.0 7.905138e-03 7.739137e-02
21 -1 0 0 101 102  0.000000e+00  0.000000e+00  2.591642e+03  2.591642e+03 0.0 0.0 9.0
21 -1 0 0 103 101  0.000000e+00  0.000000e+00 -2.426365e+03  2.426365e+03 0.0 0.0 9.0
22  1 1 2   0   0  5.501533e+02 -1.426824e+02 -2.361072e+03  2.428516e+03 0.0 0.0 9.0
21  1 1 2 103 102 -5.501533e+02  1.426824e+02  2.526349e+03  2.589492e+03 0.0 0.0 9.0
#pdf 21 21 3.987142e-01 3.732870e-01 5000.0 1.065060e-02 1.463620e-02
</event>
<event>
4 6 1.0 5000.0 7.905138e-03 7.739137e-02
21 -1 0 0 101 102  0.000000e+00  0.000000e+00  2.351643e+03  2.351643e+03 0.0 0.0 9.0
21 -1 0 0 103 101  0.000000e+00  0.000000e+00 -2.729016e+03  2.729016e+03 0.0 0.0 9.0
21  1 1 2 103 102 -1.429332e+02 -2.107171e+03 -1.591515e+03  2.644526e+03 0.0 0.0 9.0
22  1 1 2   0   0  1.429332e+02  2.107171e+03  1.214141e+03  2.436132e+03 0.0 0.0 9.0
#pdf 21 21 3.617912e-01 4.198486e-01 5000.0 1.687437e-02 8.146014e-03
</event>
<event>
4 6 1.0 5000.0 7.905138e-03 7.739137e-02
21 -1 0 0 101 102  0.000000e+00  0.000000e+00  2.201856e+03  2.201856e+03 0.0 0.0 9.0
21 -1 0 0 103 101  0.000000e+00  0.000000e+00 -2.703653e+03  2.703653e+03 0.0 0.0 9.0
21  1 1 2 103 102 -1.103293e+03 -8.880319e+02 -2.248131e+03  2.657056e+03 0.0 0.0 9.0
22  1 1 2   0   0  1.103293e+03  8.880319e+02  1.746334e+03  2.248452e+03 0.0 0.0 9.0
#pdf 21 21 3.387471e-01 4.159466e-01 5000.0 2.240434e-02 8.560994e-03
</event>
<event>
4 6 1.0 5000.0 7.905138e-03 7.739137e-02
21 -1 0 0 101 102  0.000000e+00  0.000000e+00  2.701799e+03  2.701799e+03 0.0 0.0 9.0
21 -1 0 0 103 101  0.000000e+00  0.000000e+00 -2.320215e+03  2.320215e+03 0.0 0.0 9.0
22  1 1 2   0   0 -2.046780e+03  9.439017e+02  1.284134e+03  2.594082e+03 0.0 0.0 9.0
21  1 1 2 103 102  2.046780e+03 -9.439017e+02 -9.025510e+02  2.427933e+03 0.0 0.0 9.0
#pdf 21 21 4.156614e-01 3.569562e-01 5000.0 8.592109e-03 1.790510e-02
</event>
<event>
4 6 1.0 5000.0 7.905138e-03 7.739137e-02
21 -1 0 0 101 102  0.000000e+00  0.000000e+00  2.889435e+03  2.889435e+03 0.0 0.0 9.0
21 -1 0 0 103 101  0.000000e+00  0.000000e+00 -1.921807e+03  1.921807e+03 0.0 0.0 9.0
22  1 1 2   0   0  2.138965e+03 -9.409132e+02  1.734181e+02  2.343195e+03 0.0 0.0 9.0
21  1 1 2 103 102 -2.138965e+03  9.409132e+02  7.942101e+02  2.468047e+03 0.0 0.0 9.0
#pdf 21 21 4.445285e-01 2.956626e-01 5000.0 5.925356e-03 3.802153e-02
</event>
<event>
4 6 1.0 5000.0 7.905138e-03 7.739137e-02
21 -1 0 0 103 101  0.000000e+00  0.000000e+00  2.417972e+03  2.417972e+03 0.0 0.0 9.0
21 -1 0 0 101 102  0.000000e+00  0.000000e+00 -2.532344e+03  2.532344e+03 0.0 0.0 9.0
22  1 1 2   0   0 -1.035870e+03 -1.840529e+03  1.232562e+03  2.445360e+03 0.0 0.0 9.0
21  1 1 2 103 102  1.035870e+03  1.840529e+03 -1.346934e+03  2.504957e+03 0.0 0.0 9.0
#pdf 21 21 3.719957e-01 3.895915e-01 5000.0 1.486656e-02 1.194483e-02
</event>
<event>
4 6 1.0 5000.0 7.905138e-03 7.739137e-02
21 -1 0 0 101 102  0.000000e+00  0.000000e+00  2.434533e+03  2.434533e+03 0.0 0.0 9.0
21 -1 0 0 103 101  0.000000e+00  0.000000e+00 -2.509798e+03  2.509798e+03 0.0 0.0 9.0
22  1 1 2   0   0  8.721197e+02 -1.168328e+03  1.958745e+03  2.441775e+03 0.0 0.0 9.0
21  1 1 2 103 102 -8.721197e+02  1.168328e+03 -2.034011e+03  2.502556e+03 0.0 0.0 9.0
#pdf 21 21 3.745435e-01 3.861228e-01 5000.0 1.441434e-02 1.247895e-02
</event>
<event>
4 6 1.0 5000.0 7.905138e-03 7.739137e-02
21 -1 0 0 103 101  0.000000e+00  0.000000e+00  2.861416e+03  2.861416e+03 0.0 0.0 9.0
21 -1 0 0 101 102  0.000000e+00  0.000000e+00 -1.996106e+03  1.996106e+03 0.0 0.0 9.0
21  1 1 2 103 102 -2.213301e+03 -1.957926e+02  1.327106e+03  2.588097e+03 0.0 0.0 9.0
22  1 1 2   0   0  2.213301e+03  1.957926e+02 -4.617961e+02  2.269425e+03 0.0 0.0 9.0
#pdf 21 21 4.402178e-01 3.070933e-01 5000.0 6.272756e-03 3.305738e-02
</event>
<event>
4 6 1.0 5000.0 7.905138e-03 7.739137e-02
21 -1 0 0 101 102  0.000000e+00  0.000000e+00  3.594691e+03  3.594691e+03 0.0 0.0 9.0
21 -1 0 0 103 101  0.000000e+00  0.000000e+00 -1.570067e+03  1.570067e+03 0.0 0.0 9.0
22  1 1 2   0   0  9.524630e+02  2.161827e+03  1.285628e+03  2.689521e+03 0.0 0.0 9.0
21  1 1 2 103 102 -9.524630e+02 -2.161827e+03  7.389958e+02  2.475237e+03 0.0 0.0 9.0
#pdf 21 21 5.530294e-01 2.415488e-01 5000.0 1.321288e-03 7.415860e-02
</event>
<event>
4 6 1.0 5000.0 7.905138e-03 7.739137e-02
21 -1 0 0 103 101  0.000000e+00  0.000000e+00  2.944372e+03  2.944372e+03 0.0 0.0 9.0
21 -1 0 0 101 102  0.000000e+00  0.000000e+00 -1.944216e+03  1.944216e+03 0.0 0.0 9.0
22  1 1 2   0   0  9.088031e+02 -1.887478e+03  1.680910e+03  2.685881e+03 0.0 0.0 9.0
21  1 1 2 103 102 -9.088031e+02  1.887478e+03 -6.807533e+02  2.202708e+03 0.0 0.0 9.0
#pdf 21 21 4.529804e-01 2.991101e-01 5000.0 5.307591e-03 3.641949e-02
</event>
<event>
4 6 1.0 5000.0 7.905138e-03 7.739137e-02
21 -1 0 0 101 102  0.000000e+00  0.000000e+00  2.717770e+03  2.717770e+03 0.0 0.0 9.0
21 -1 0 0 103 101  0.000000e+00  0.000000e+00 -2.193121e+03  2.193121e+03 0.0 0.0 9.0
21  1 1 2 103 102 -1.518196e+03  1.805275e+03  8.955996e+02  2.523101e+03 0.0 0.0 9.0
22  1 1 2   0   0  1.518196e+03 -1.805275e+03 -3.709506e+02  2.387790e+03 0.0 0.0 9.0
#pdf 21 21 4.181184e-01 3.374032e-01 5000.0 8.327607e-03 2.277720e-02
</event>
<event>
4 6 1.0 5000.0 7.905138e-03 7.739137e-02
21 -1 0 0 103 101  0.000000e+00  0.000000e+00  2.035667e+03  2.035667e+03 0.0 0.0 9.0
21 -1 0 0 101 102  0.000000e+00  0.000000e+00 -3.158372e+03  3.158372e+03 0.0 0.0 9.0
21  1 1 2 103 102  1.889166e+03 -1.870068e+02  1.160262e+03  2.224888e+03 0.0 0.0 9.0
22  1 1 2   0   0 -1.889166e+03  1.870068e+02 -2.282967e+03  2.969151e+03 0.0 0.0 9.0
#pdf 21 21 3.131795e-01 4.859034e-01 5000.0 3.066489e-02 3.417309e-03
</event>
<event>
4 6 1.0 5000.0 7.905138e-03 7.739137e-02
21 -1 0 0 103 101  0.000000e+00  0.000000e+00  2.730914e+03  2.730914e+03 0.0 0.0 9.0
21 -1 0 0 101 102  0.000000e+00  0.000000e+00 -2.082363e+03  2.082363e+03 0.0 0.0 9.0
22  1 1 2   0   0 -1.973915e+03 -1.327934e+03  4.901198e+02  2.428985e+03 0.0 0.0 9.0
21  1 1 2 103 102  1.973915e+03  1.327934e+03  1.584315e+02  2.384292e+03 0.0 0.0 9.0
#pdf 21 21 4.201406e-01 3.203635e-01 5000.0 8.115727e-03 2.806762e-02
</event>
<event>
4 6 1.0 5000.0 7.905138e-03 7.739137e-02
21 -1 0 0 103 101  0.000000e+00  0.000000e+00  2.886697e+03  2.886697e+03 0.0 0.0 9.0
21 -1 0 0 101 102  0.000000e+00  0.000000e+00 -2.623574e+03  2.623574e+03 0.0 0.0 9.0
21  1 1 2 103 102  1.358552e+03  1.464077e+03 -1.763820e+03  2.664629e+03 0.0 0.0 9.0
22  1 1 2   0   0 -1.358552e+03 -1.464077e+03  2.026943e+03  2.845643e+03 0.0 0.0 9.0
#pdf 21 21 4.441073e-01 4.036268e-01 5000.0 5.958967e-03 1.001170e-02
</event>
<event>
4 6 1.0 5000.0 7.905138e-03 7.739137e-02
21 -1 0 0 103 101  0.000000e+00  0.000000e+00  2.027220e+03  2.027220e+03 0.0 0.0 9.0
21 -1 0 0 101 102  0.000000e+00  0.000000e+00 -3.038827e+03  3.038827e+03 0.0 0.0 9.0
22  1 1 2   0   0 -5.628634e+02  1.199230e+03  1.636241e+03  2.105292e+03 0.0 0.0 9.0
21  1 1 2 103 102  5.628634e+02 -1.199230e+03 -2.647849e+03  2.960755e+03 0.0 0.0 9.0
#pdf 21 21 3.118800e-01 4.675119e-01 5000.0 3.116254e-02 4.377306e-03
</event>
<event>
4 6 1.0 5000.0 7.905138e-03 7.739137e-02
21 -1 0 0 101 102  0.000000e+00  0.000000e+00  3.061285e+03  3.061285e+03 0.0 0.0 9.0
21 -1 0 0 103 101  0.000000e+00  0.000000e+00 -2.091148e+03  2.091148e+03 0.0 0.0 9.0
22  1 1 2   0   0  1.046121e+03  1.552195e+03  2.218399e+03  2.902580e+03 0.0 0.0 9.0
21  1 1 2 103 102 -1.046121e+03 -1.552195e+03 -1.248262e+03  2.249853e+03 0.0 0.0 9.0
#pdf 21 21 4.709669e-01 3.217151e-01 5000.0 4.180524e-03 2.760696e-02
</event>
<event>
4 6 1.0 5000.0 7.905138e-03 7.739137e-02
21 -1 0 0 101 102  0.000000e+00  0.000000e+00  2.116414e+03  2.116414e+03 0.0 0.0 9.0
21 -1 0 0 103 101  0.000000e+00  0.000000e+00 -3.052324e+03  3.052324e+03 0.0 0.0 9.0
22  1 1 2   0   0  1.777100e+02 -1.592643e+03  1.537991e+03  2.221150e+03 0.0 0.0 9.0
21  1 1 2 103 102 -1.777100e+02  1.592643e+03 -2.473900e+03  2.947588e+03 0.0 0.0 9.0
#pdf 21 21 3.256022e-01 4.695883e-01 5000.0 2.632510e-02 4.258084e-03
</event>
<event>
4 6 1.0 5000.0 7.905138e-03 7.739137e-02
21 -1 0 0 101 102  0.000000e+00  0.000000e+00  2.457839e+03  2.457839e+03 0.0 0.0 9.0
21 -1 0 0 103 101  0.000000e+00  0.000000e+00 -1.808372e+03  1.808372e+03 0.0 0.0 9.0
22  1 1 2   0   0  1.346060e+03 -1.471643e+03  1.016223e+03  2.238374e+03 0.0 0.0 9.0
21  1 1 2 103 102 -1.346060e+03  1.471643e+03 -3.667553e+02  2.027836e+03 0.0 0.0 9.0
#pdf 21 21 3.781291e-01 2.782110e-01 5000.0 1.379274e-02 4.704968e-02
</event>
<event>
4 6 1.0 5000.0 7.905138e-03 7.739137e-02
21 -1 0 0 103 101  0.000000e+00  0.000000e+00  1.866087e+03  1.866087e+03 0.0 0.0 9.0
21 -1 0 0 101 102  0.000000e+00  0.000000e+00 -3.407134e+03  3.407134e+03 0.0 0.0 9.0
21  1 1 2 103 102  3.532043e+02 -6.711339e+02 -3.285048e+03  3.371456e+03 0.0 0.0 9.0
22  1 1 2   0   0 -3.532043e+02  6.711339e+02  1.744000e+03  1.901765e+03 0.0 0.0 9.0
#pdf 21 21 2.870903e-01 5.241745e-01 5000.0 4.219963e-02 2.009560e-03
</event>
<event>
4 6 1.0 5000.0 7.905138e-03 7.739137e-02
21 -1 0 0 103 101  0.000000e+00  0.000000e+00  2.413375e+03  2.413375e+03 0.0 0.0 9.0
21 -1 0 0 101 102  0.000000e+00  0.000000e+00 -2.316120e+03  2.316120e+03 0.0 0.0 9.0
22  1 1 2   0   0  1.880370e+03  1.091921e+03 -8.797852e+02  2.345656e+03 0.0 0.0 9.0
21  1 1 2 103 102 -1.880370e+03 -1.091921e+03  9.770396e+02  2.383839e+03 0.0 0.0 9.0
#pdf 21 21 3.712884e-01 3.563262e-01 5000.0 1.499536e-02 1.804494e-02
</event>
<event>
4 6 1.0 5000.0 7.905138e-03 7.739137e-02
21 -1 0 0 101 102  0.000000e+00  0.000000e+00  2.638277e+03  2.638277e+03 0.0 0.0 9.0
21 -1 0 0 103 101  0.000000e+00  0.000000e+00 -2.377162e+03  2.377162e+03 0.0 0.0 9.0
21  1 1 2 103 102  2.437479e+03  5.741202e+02  1.569444e+02  2.509093e+03 0.0 0.0 9.0
22  1 1 2   0   0 -2.437479e+03 -5.741202e+02  1.041703e+02  2.506346e+03 0.0 0.0 9.0
#pdf 21 21 4.058888e-01 3.657173e-01 5000.0 9.729380e-03 1.607669e-02
</event>
<event>
4 6 1.0 5000.0 7.905138e-03 7.739137e-02
21 -1 0 0 101 102  0.000000e+00  0.000000e+00  1.371292e+03  1.371292e+03 0.0 0.0 9.0
21 -1 0 0 103 101  0.000000e+00  0.000000e+00 -3.697032e+03  3.697032e+03 0.0 0.0 9.0
22  1 1 2   0   0  2.149358e+03  3.469773e+02 -1.809004e+03  2.830658e+03 0.0 0.0 9.0
21  1 1 2 103 102 -2.149358e+03 -3.469773e+02 -5.167364e+02  2.237666e+03 0.0 0.0 9.0
#pdf 21 21 2.109680e-01 5.687742e-01 5000.0 1.091697e-01 1.044380e-03
</event>
<event>
4 6 1.0 5000.0 7.905138e-03 7.739137e-02
21 -1 0 0 101 102  0.000000e+00  0.000000e+00  2.026665e+03  2.026665e+03 0.0 0.0 9.0
21 -1 0 0 103 101  0.000000e+00  0.000000e+00 -3.084110e+03  3.084110e+03 0.0 0.0 9.0
21  1 1 2 103 102 -8.449620e+02 -7.247993e+02  1.759352e+03  2.081973e+03 0.0 0.0 9.0
22  1 1 2   0   0  8.449620e+02  7.247993e+02 -2.816797e+03  3.028801e+03 0.0 0.0 9.0
#pdf 21 21 3.117946e-01 4.744785e-01 5000.0 3.119551e-02 3.988570e-03
</event>
<event>
4 6 1.0 5000.0 7.905138e-03 7.739137e-02
21 -1 0 0 101 102  0.000000e+00  0.000000e+00  2.672737e+03  2.672737e+03 0.0 0.0 9.0
21 -1 0 0 103 101  0.000000e+00  0.000000e+00 -2.292271e+03  2.292271e+03 0.0 0.0 9.0
21  1 1 2 103 102  1.275026e+03  4.638200e+02  2.266560e+03  2.641612e+03 0.0 0.0 9.0
22  1 1 2   0   0 -1.275026e+03 -4.638200e+02 -1.886094e+03  2.323396e+03 0.0 0.0 9.0
#pdf 21 21 4.111903e-01 3.526570e-01 5000.0 9.094917e-03 1.888844e-02
</event>
<event>
4 6 1.0 5000.0 7.905138e-03 7.739137e-02
21 -1 0 0 103 101  0.000000e+00  0.000000e+00  1.902067e+03  1.902067e+03 0.0 0.0 9.0
21 -1 0 0 101 102  0.000000e+00  0.000000e+00 -3.157879e+03  3.157879e+03 0.0 0.0 9.0
21  1 1 2 103 102 -2.275217e+02  1.511866e+03 -2.605233e+03  3.020719e+03 0.0 0.0 9.0
22  1 1 2   0   0  2.275217e+02 -1.511866e+03  1.349421e+03  2.039226e+03 0.0 0.0 9.0
#pdf 21 21 2.926256e-01 4.858275e-01 5000.0 3.946205e-02 3.420833e-03
</event>
<event>
4 6 1.0 5000.0 7.905138e-03 7.739137e-02
21 -1 0 0 103 101  0.000000e+00  0.000000e+00  1.476425e+03  1.476425e+03 0.0 0.0 9.0
21 -1 0 0 101 102  0.000000e+00  0.000000e+00 -3.962532e+03  3.962532e+03 0.0 0.0 9.0
22  1 1 2   0   0 -3.094826e+02 -6.694597e+02 -3.833023e+03  3.903334e+03 0.0 0.0 9.0
21  1 1 2 103 102  3.094826e+02  6.694597e+02  1.346915e+03  1.535622e+03 0.0 0.0 9.0
#pdf 21 21 2.271423e-01 6.096203e-01 5000.0 8.878741e-02 5.496054e-04
</event>
<event>
4 6 1.0 5000.0 7.905138e-03 7.739137e-02
21 -1 0 0 101 102  0.000000e+00  0.000000e+00  2.237372e+03  2.237372e+03 0.0 0.0 9.0
21 -1 0 0 103 101  0.000000e+00  0.000000e+00 -2.501164e+03  2.501164e+03 0.0 0.0 9.0
22  1 1 2   0   0 -1.210369e+03  4.343862e+02  1.856723e+03  2.258562e+03 0.0 0.0 9.0
21  1 1 2 103 102  1.210369e+03 -4.343862e+02 -2.120514e+03  2.479973e+03 0.0 0.0 9.0
#pdf 21 21 3.442110e-01 3.847944e-01 5000.0 2.095547e-02 1.268961e-02
</event>
<event>
4 6 1.0 5000.0 7.905138e-03 7.739137e-02
21 -1 0 0 103 101  0.000000e+00  0.000000e+00  2.156398e+03  2.156398e+03 0.0 0.0 9.0
21 -1 0 0 101 102  0.000000e+00  0.000000e+00 -2.935365e+03  2.935365e+03 0.0 0.0 9.0
22  1 1 2   0   0 -5.784150e+02  1.405063e+03 -2.418625e+03  2.856311e+03 0.0 0.0 9.0
21  1 1 2 103 102  5.784150e+02 -1.405063e+03  1.639658e+03  2.235452e+03 0.0 0.0 9.0
#pdf 21 21 3.317536e-01 4.515947e-01 5000.0 2.441599e-02 5.404574e-03
</event>
<event>
4 6 1.0 5000.0 7.905138e-03 7.739137e-02
21 -1 0 0 103 101  0.000000e+00  0.000000e+00  2.397392e+03  2.397392e+03 0.0 0.0 9.0
21 -1 0 0 101 102  0.000000e+00  0.000000e+00 -2.444382e+03  2.444382e+03 0.0 0.0 9.0
21  1 1 2 103 102  1.252075e+03  9.901099e+02  1.796518e+03  2.403224e+03 0.0 0.0 9.0
22  1 1 2   0   0 -1.252075e+03 -9.901099e+02 -1.843507e+03  2.438550e+03 0.0 0.0 9.0
#pdf 21 21 3.688296e-01 3.760588e-01 5000.0 1.546000e-02 1.414950e-02
</event>
<event>
4 6 1.0 5000.0 7.905138e-03 7.739137e-02
21 -1 0 0 101 102  0.000000e+00  0.000000e+00  2.221149e+03  2.221149e+03 0.0 0.0 9.0
21 -1 0 0 103 101  0.000000e+00  0.000000e+00 -3.155395e+03  3.155395e+03 0.0 0.0 9.0
22  1 1 2   0   0 -2.111599e+03  1.420850e+03 -1.207033e+03  2.816841e+03 0.0 0.0 9.0
21  1 1 2 103 102  2.111599e+03 -1.420850e+03  2.727864e+02  2.559703e+03 0.0 0.0 9.0
#pdf 21 21 3.417152e-01 4.854454e-01 5000.0 2.160465e-02 3.438611e-03
</event>
<event>
4 6 1.0 5000.0 7.905138e-03 7.739137e-02
21 -1 0 0 103 101  0.000000e+00  0.000000e+00  1.280827e+03  1.280827e+03 0.0 0.0 9.0
21 -1 0 0 101 102  0.000000e+00  0.000000e+00 -4.240466e+03  4.240466e+03 0.0 0.0 9.0
22  1 1 2   0   0  3.540562e+02 -2.298513e+03 -1.301001e+03  2.664793e+03 0.0 0.0 9.0
21  1 1 2 103 102 -3.540562e+02  2.298513e+03 -1.658637e+03  2.856500e+03 0.0 0.0 9.0
#pdf 21 21 1.970504e-01 6.523793e-01 5000.0 1.307290e-01 2.656924e-04
</event>
<event>
4 6 1.0 5000.0 7.905138e-03 7.739137e-02
21 -1 0 0 101 102  0.000000e+00  0.000000e+00  2.401577e+03  2.401577e+03 0.0 0.0 9.0
21 -1 0 0 103 101  0.000000e+00  0.000000e+00 -2.382615e+03  2.382615e+03 0.0 0.0 9.0
21  1 1 2 103 102 -1.133667e+03 -1.852819e+03 -9.924711e+02  2.388125e+03 0.0 0.0 9.0
22  1 1 2   0   0  1.133667e+03  1.852819e+03  1.011433e+03  2.396067e+03 0.0 0.0 9.0
#pdf 21 21 3.694734e-01 3.665561e-01 5000.0 1.533596e-02 1.590901e-02
</event>
<event>
4 6 1.0 5000.0 7.905138e-03 7.739137e-02
21 -1 0 0 103 101  0.000000e+00  0.000000e+00  2.509040e+03  2.509040e+03 0.0 0.0 9.0
21 -1 0 0 101 102  0.000000e+00  0.000000e+00 -2.873454e+03  2.873454e+03 0.0 0.0 9.0
21  1 1 2 103 102  5.090079e+02 -7.571089e+02 -2.713348e+03  2.862614e+03 0.0 0.0 9.0
22  1 1 2   0   0 -5.090079e+02  7.571089e+02  2.348934e+03  2.519880e+03 0.0 0.0 9.0
#pdf 21 21 3.860062e-01 4.420698e-01 5000.0 1.249731e-02 6.122469e-03
</event>
<event>
4 6 1.0 5000.0 7.905138e-03 7.739137e-02
21 -1 0 0 101 102  0.000000e+00  0.000000e+00  2.293932e+03  2.293932e+03 0.0 0.0 9.0
21 -1 0 0 103 101  0.000000e+00  0.000000e+00 -2.713774e+03  2.713774e+03 0.0 0.0 9.0
22  1 1 2   0   0  3.427735e+02 -1.586734e+03 -2.111343e+03  2.663267e+03 0.0 0.0 9.0
21  1 1 2 103 102 -3.427735e+02  1.586734e+03  1.691501e+03  2.344439e+03 0.0 0.0 9.0
#pdf 21 21 3.529126e-01 4.175037e-01 5000.0 1.882851e-02 8.393040e-03
</event>
<event>
4 6 1.0 5000.0 7.905138e-03 7.739137e-02
21 -1 0 0 103 101  0.000000e+00  0.000000e+00  2.021601e+03  2.021601e+03 0.0 0.0 9.0
21 -1 0 0 101 102  0.000000e+00  0.000000e+00 -2.891698e+03  2.891698e+03 0.0 0.0 9.0
22  1 1 2   0   0 -1.865877e+03 -1.199388e+02  1.122534e+03  2.180817e+03 0.0 0.0 9.0
21  1 1 2 103 102  1.865877e+03  1.199388e+02 -1.992630e+03  2.732482e+03 0.0 0.0 9.0
#pdf 21 21 3.110156e-01 4.448766e-01 5000.0 3.149780e-02 5.897620e-03
</event>
<event>
4 6 1.0 5000.0 7.905138e-03 7.739137e-02
21 -1 0 0 101 102  0.000000e+00  0.000000e+00  3.471609e+03  3.471609e+03 0.0 0.0 9.0
21 -1 0 0 103 101  0.000000e+00  0.000000e+00 -1.808588e+03  1.808588e+03 0.0 0.0 9.0
22  1 1 2   0   0 -1.363331e+02 -2.233101e+03 -3.574416e+02  2.265632e+03 0.0 0.0 9.0
21  1 1 2 103 102  1.363331e+02  2.233101e+03  2.020463e+03  3.014564e+03 0.0 0.0 9.0
#pdf 21 21 5.340937e-01 2.782443e-01 5000.0 1.743968e-03 4.703045e-02
</event>
<event>
4 6 1.0 5000.0 7.905138e-03 7.739137e-02
21 -1 0 0 103 101  0.000000e+00  0.000000e+00  3.164882e+03  3.164882e+03 0.0 0.0 9.0
21 -1 0 0 101 102  0.000000e+00  0.000000e+00 -1.947053e+03  1.947053e+03 0.0 0.0 9.0
21  1 1 2 103 102  1.192672e+03 -1.967394e+03 -3.509716e+02  2.327291e+03 0.0 0.0 9.0
22  1 1 2   0   0 -1.192672e+03  1.967394e+03  1.568800e+03  2.784643e+03 0.0 0.0 9.0
#pdf 21 21 4.869049e-01 2.995466e-01 5000.0 3.371192e-03 3.621837e-02
</event>
<event>
4 6 1.0 5000.0 7.905138e-03 7.739137e-02
21 -1 0 0 103 101  0.000000e+00  0.000000e+00  3.888493e+03  3.888493e+03 0.0 0.0 9.0
21 -1 0 0 101 102  0.000000e+00  0.000000e+00 -1.499021e+03  1.499021e+03 0.0 0.0 9.0
22  1 1 2   0   0 -1.861611e+03  1.263419e+03  2.175163e+02  2.260340e+03 0.0 0.0 9.0
21  1 1 2 103 102  1.861611e+03 -1.263419e+03  2.171956e+03  3.127174e+03 0.0 0.0 9.0
#pdf 21 21 5.982297e-01 2.306186e-01 5000.0 6.601798e-04 8.497927e-02
</event>
<event>
4 6 1.0 5000.0 7.905138e-03 7.739137e-02
21 -1 0 0 101 102  0.000000e+00  0.000000e+00  3.187752e+03  3.187752e+03 0.0 0.0 9.0
21 -1 0 0 103 101  0.000000e+00  0.000000e+00 -1.584633e+03  1.584633e+03 0.0 0.0 9.0
22  1 1 2   0   0  2.048054e+03  7.209640e+02  1.417985e+03  2.593260e+03 0.0 0.0 9.0
21  1 1 2 103 102 -2.048054e+03 -7.209640e+02  1.851338e+02  2.179126e+03 0.0 0.0 9.0
#pdf 21 21 4.904234e-01 2.437898e-01 5000.0 3.213885e-03 7.207477e-02
</event>
<event>
4 6 1.0 5000.0 7.905138e-03 7.739137e-02
21 -1 0 0 101 102  0.000000e+00  0.000000e+00  3.777091e+03  3.777091e+03 0.0 0.0 9.0
21 -1 0 0 103 101  0.000000e+00  0.000000e+00 -1.583715e+03  1.583715e+03 0.0 0.0 9.0
21  1 1 2 103 102  1.035994e+03 -7.270318e+02 -1.196918e+03  1.741973e+03 0.0 0.0 9.0
22  1 1 2   0   0 -1.035994e+03  7.270318e+02  3.390294e+03  3.618833e+03 0.0 0.0 9.0
#pdf 21 21 5.810910e-01 2.436485e-01 5000.0 8.641235e-04 7.220535e-02
</event>
<event>
4 6 1.0 5000.0 7.905138e-03 7.739137e-02
21 -1 0 0 101 102  0.000000e+00  0.000000e+00  2.405952e+03  2.405952e+03 0.0 0.0 9.0
21 -1 0 0 103 101  0.000000e+00  0.000000e+00 -2.316003e+03  2.316003e+03 0.0 0.0 9.0
21  1 1 2 103 102  2.704208e+02  2.222521e+03 -7.031354e+02  2.346727e+03 0.0 0.0 9.0
22  1 1 2   0   0 -2.704208e+02 -2.222521e+03  7.930846e+02  2.375229e+03 0.0 0.0 9.0
#pdf 21 21 3.701465e-01 3.563082e-01 5000.0 1.520802e-02 1.804896e-02
</event>
<event>
4 6 1.0 5000.0 7.905138e-03 7.739137e-02
21 -1 0 0 103 101  0.000000e+00  0.000000e+00  4.044634e+03  4.044634e+03 0.0 0.0 9.0
21 -1 0 0 101 102  0.000000e+00  0.000000e+00 -1.542015e+03  1.542015e+03 0.0 0.0 9.0
22  1 1 2   0   0 -1.720681e+03  2.338721e+02 -7.562249e+02  1.894021e+03 0.0 0.0 9.0
21  1 1 2 103 102  1.720681e+03 -2.338721e+02  3.258844e+03  3.692628e+03 0.0 0.0 9.0
#pdf 21 21 6.222514e-01 2.372331e-01 5000.0 4.463933e-04 7.827161e-02
</event>
<event>
4 6 1.0 5000.0 7.905138e-03 7.739137e-02
21 -1 0 0 103 101  0.000000e+00  0.000000e+00  2.886492e+03  2.886492e+03 0.0 0.0 9.0
21 -1 0 0 101 102  0.000000e+00  0.000000e+00 -1.977769e+03  1.977769e+03 0.0 0.0 9.0
21  1 1 2 103 102 -1.277879e+03 -6.475541e+02 -1.492108e+03  2.068499e+03 0.0 0.0 9.0
22  1 1 2   0   0  1.277879e+03  6.475541e+02  2.400830e+03  2.795763e+03 0.0 0.0 9.0
#pdf 21 21 4.440757e-01 3.042722e-01 5000.0 5.961490e-03 3.421237e-02
</event>
<event>
4 6 1.0 5000.0 7.905138e-03 7.739137e-02
21 -1 0 0 103 101  0.000000e+00  0.000000e+00  3.195859e+03  3.195859e+03 0.0 0.0 9.0
21 -1 0 0 101 102  0.000000e+00  0.000000e+00 -1.780220e+03  1.780220e+03 0.0 0.0 9.0
21  1 1 2 103 102  1.055601e+03  2.129997e+03  9.115636e+02  2.546002e+03 0.0 0.0 9.0
22  1 1 2   0   0 -1.055601e+03 -2.129997e+03  5.040759e+02  2.430077e+03 0.0 0.0 9.0
#pdf 21 21 4.916707e-01 2.738800e-01 5000.0 3.159798e-03 4.962181e-02
</event>
<event>
4 6 1.0 5000.0 7.905138e-03 7.739137e-02
21 -1 0 0 101 102  0.000000e+00  0.000000e+00  3.493216e+03  3.493216e+03 0.0 0.0 9.0
21 -1 0 0 103 101  0.000000e+00  0.000000e+00 -1.720774e+03  1.720774e+03 0.0 0.0 9.0
22  1 1 2   0   0 -3.463172e+02 -1.604535e+03  2.822687e+03  3.265277e+03 0.0 0.0 9.0
21  1 1 2 103 102  3.463172e+02  1.604535e+03 -1.050245e+03  1.948713e+03 0.0 0.0 9.0
#pdf 21 21 5.374178e-01 2.647344e-01 5000.0 1.660946e-03 5.553742e-02
</event>
<event>
4 6 1.0 5000.0 7.905138e-03 7.739137e-02
21 -1 0 0 103 101  0.000000e+00  0.000000e+00  3.881762e+03  3.881762e+03 0.0 0.0 9.0
21 -1 0 0 101 102  0.000000e+00  0.000000e+00 -1.611789e+03  1.611789e+03 0.0 0.0 9.0
21  1 1 2 103 102 -1.650993e+03  5.717579e+02  3.100580e+03  3.558972e+03 0.0 0.0 9.0
22  1 1 2   0   0  1.650993e+03 -5.717579e+02 -8.306078e+02  1.934579e+03 0.0 0.0 9.0
#pdf 21 21 5.971941e-01 2.479676e-01 5000.0 6.711114e-04 6.841713e-02
</event>
<event>
4 6 1.0 5000.0 7.905138e-03 7.739137e-02
21 -1 0 0 103 101  0.000000e+00  0.000000e+00  3.792036e+03  3.792036e+03 0.0 0.0 9.0
21 -1 0 0 101 102  0.000000e+00  0.000000e+00 -1.525398e+03  1.525398e+03 0.0 0.0 9.0
21  1 1 2 103 102 -1.334052e+03 -6.887786e+02  3.210371e+03  3.544092e+03 0.0 0.0 9.0
22  1 1 2   0   0  1.334052e+03  6.887786e+02 -9.437327e+02  1.773342e+03 0.0 0.0 9.0
#pdf 21 21 5.833902e-01 2.346766e-01 5000.0 8.339487e-04 8.079446e-02
</event>
<event>
4 6 1.0 5000.0 7.905138e-03 7.739137e-02
21 -1 0 0 101 102  0.000000e+00  0.000000e+00  1.798463e+03  1.798463e+03 0.0 0.0 9.0
21 -1 0 0 103 101  0.000000e+00  0.000000e+00 -3.053886e+03  3.053886e+03 0.0 0.0 9.0
21  1 1 2 103 102 -2.072757e+03 -9.294084e+02 -3.104603e+01  2.271803e+03 0.0 0.0 9.0
22  1 1 2   0   0  2.072757e+03  9.294084e+02 -1.224376e+03  2.580547e+03 0.0 0.0 9.0
#pdf 21 21 2.766867e-01 4.698286e-01 5000.0 4.793984e-02 4.244473e-03
</event>
<event>
4 6 1.0 5000.0 7.905138e-03 7.739137e-02
21 -1 0 0 101 102  0.000000e+00  0.000000e+00  1.659815e+03  1.659815e+03 0.0 0.0 9.0
21 -1 0 0 103 101  0.000000e+00  0.000000e+00 -3.442542e+03  3.442542e+03 0.0 0.0 9.0
21  1 1 2 103 102 -1.251641e+03  1.845165e+03 -1.811157e+03  2.872548e+03 0.0 0.0 9.0
22  1 1 2   0   0  1.251641e+03 -1.845165e+03  2.842983e+01  2.229809e+03 0.0 0.0 9.0
#pdf 21 21 2.553561e-01 5.296219e-01 5000.0 6.243881e-02 1.860099e-03
</event>
<event>
4 6 1.0 5000.0 7.905138e-03 7.739137e-02
21 -1 0 0 103 101  0.000000e+00  0.000000e+00  3.849066e+03  3.849066e+03 0.0 0.0 9.0
21 -1 0 0 101 102  0.000000e+00  0.000000e+00 -1.559977e+03  1.559977e+03 0.0 0.0 9.0
21  1 1 2 103 102 -1.166571e+03  6.246315e+02 -1.131715e+03  1.741216e+03 0.0 0.0 9.0
22  1 1 2   0   0  1.166571e+03 -6.246315e+02  3.420805e+03  3.667827e+03 0.0 0.0 9.0
#pdf 21 21 5.921640e-01 2.399964e-01 5000.0 7.267394e-04 7.562052e-02
</event>
<event>
4 6 1.0 5000.0 7.905138e-03 7.739137e-02
21 -1 0 0 101 102  0.000000e+00  0.000000e+00  2.004124e+03  2.004124e+03 0.0 0.0 9.0
21 -1 0 0 103 101  0.000000e+00  0.000000e+00 -2.908282e+03  2.908282e+03 0.0 0.0 9.0
22  1 1 2   0   0  2.853720e+02 -2.235748e+03  4.281474e+02  2.294192e+03 0.0 0.0 9.0
21  1 1 2 103 102 -2.853720e+02  2.235748e+03 -1.332305e+03  2.618214e+03 0.0 0.0 9.0
#pdf 21 21 3.083268e-01 4.474280e-01 5000.0 3.256057e-02 5.702131e-03
</event>
<event>
4 6 1.0 5000.0 7.905138e-03 7.739137e-02
21 -1 0 0 103 101  0.000000e+00  0.000000e+00  2.747043e+03  2.747043e+03 0.0 0.0 9.0
21 -1 0 0 101 102  0.000000e+00  0.000000e+00 -2.082978e+03  2.082978e+03 0.0 0.0 9.0
21  1 1 2 103 102 -3.705700e+02 -1.804043e+03  1.873147e+03  2.626894e+03 0.0 0.0 9.0
22  1 1 2   0   0  3.705700e+02  1.804043e+03 -1.209082e+03  2.203128e+03 0.0 0.0 9.0
#pdf 21 21 4.226220e-01 3.204582e-01 5000.0 7.862446e-03 2.803509e-02
</event>
<event>
4 6 1.0 5000.0 7.905138e-03 7.739137e-02
21 -1 0 0 101 102  0.000000e+00  0.000000e+00  1.848439e+03  1.848439e+03 0.0 0.0 9.0
21 -1 0 0 103 101  0.000000e+00  0.000000e+00 -3.337516e+03  3.337516e+03 0.0 0.0 9.0
21  1 1 2 103 102 -1.651662e+03  9.075883e+02 -2.433529e+03  3.077949e+03 0.0 0.0 9.0
22  1 1 2   0   0  1.651662e+03 -9.075883e+02  9.444514e+02  2.108007e+03 0.0 0.0 9.0
#pdf 21 21 2.843752e-01 5.134641e-01 5000.0 4.361514e-02 2.337642e-03
</event>
<event>
4 6 1.0 5000.0 7.905138e-03 7.739137e-02
21 -1 0 0 103 101  0.000000e+00  0.000000e+00  1.648113e+03  1.648113e+03 0.0 0.0 9.0
21 -1 0 0 101 102  0.000000e+00  0.000000e+00 -3.452877e+03  3.452877e+03 0.0 0.0 9.0
21  1 1 2 103 102 -1.499323e+03  2.153261e+02 -2.872761e+03  3.247629e+03 0.0 0.0 9.0
22  1 1 2   0   0  1.499323e+03 -2.153261e+02  1.067997e+03  1.853362e+03 0.0 0.0 9.0
#pdf 21 21 2.535559e-01 5.312119e-01 5000.0 6.385932e-02 1.818217e-03
</event>
<event>
4 6 1.0 5000.0 7.905138e-03 7.739137e-02
21 -1 0 0 101 102  0.000000e+00  0.000000e+00  1.230039e+03  1.230039e+03 0.0 0.0 9.0
21 -1 0 0 103 101  0.000000e+00  0.000000e+00 -3.713277e+03  3.713277e+03 0.0 0.0 9.0
22  1 1 2   0   0 -1.164226e+03  1.773629e+03 -1.539391e+03  2.621242e+03 0.0 0.0 9.0
21  1 1 2 103 102  1.164226e+03 -1.773629e+03 -9.438471e+02  2.322075e+03 0.0 0.0 9.0
#pdf 21 21 1.892368e-01 5.712734e-01 5000.0 1.449701e-01 1.004983e-03
</event>
<event>
4 6 1.0 5000.0 7.905138e-03 7.739137e-02
21 -1 0 0 103 101  0.000000e+00  0.000000e+00  2.523742e+03  2.523742e+03 0.0 0.0 9.0
21 -1 0 0 101 102  0.000000e+00  0.000000e+00 -2.579478e+03  2.579478e+03 0.0 0.0 9.0
21  1 1 2 103 102  1.396957e+03  1.301076e+03  1.665056e+03  2.533121e+03 0.0 0.0 9.0
22  1 1 2   0   0 -1.396957e+03 -1.301076e+03 -1.720792e+03  2.570100e+03 0.0 0.0 9.0
#pdf 21 21 3.882680e-01 3.968428e-01 5000.0 1.214582e-02 1.090402e-02
</event>
<event>
4 6 1.0 5000.0 7.905138e-03 7.739137e-02
21 -1 0 0 103 101  0.000000e+00  0.000000e+00  2.741037e+03  2.741037e+03 0.0 0.0 9.0
21 -1 0 0 101 102  0.000000e+00  0.000000e+00 -1.997132e+03  1.997132e+03 0.0 0.0 9.0
22  1 1 2   0   0 -5.535110e+02  6.217139e+02  2.586032e+03  2.716701e+03 0.0 0.0 9.0
21  1 1 2 103 102  5.535110e+02 -6.217139e+02 -1.842127e+03  2.021468e+03 0.0 0.0 9.0
#pdf 21 21 4.216981e-01 3.072510e-01 5000.0 7.955920e-03 3.299354e-02
</event>
<event>
4 6 1.0 5000.0 7.905138e-03 7.739137e-02
21 -1 0 0 101 102  0.000000e+00  0.000000e+00  1.846397e+03  1.846397e+03 0.0 0.0 9.0
21 -1 0 0 103 101  0.000000e+00  0.000000e+00 -2.623882e+03  2.623882e+03 0.0 0.0 9.0
22  1 1 2   0   0 -5.828050e+02 -1.200084e+03  1.389027e+03  1.925944e+03 0.0 0.0 9.0
21  1 1 2 103 102  5.828050e+02  1.200084e+03 -2.166513e+03  2.544335e+03 0.0 0.0 9.0
#pdf 21 21 2.840610e-01 4.036742e-01 5000.0 4.378268e-02 1.000572e-02
</event>
<event>
4 6 1.0 5000.0 7.905138e-03 7.739137e-02
21 -1 0 0 101 102  0.000000e+00  0.000000e+00  2.342311e+03  2.342311e+03 0.0 0.0 9.0
21 -1 0 0 103 101  0.000000e+00  0.000000e+00 -2.859629e+03  2.859629e+03 0.0 0.0 9.0
22  1 1 2   0   0  6.033509e+02 -9.158057e+02  2.097249e+03  2.366682e+03 0.0 0.0 9.0
21  1 1 2 103 102 -6.033509e+02  9.158057e+02 -2.614566e+03  2.835258e+03 0.0 0.0 9.0
#pdf 21 21 3.603556e-01 4.399429e-01 5000.0 1.717357e-02 6.295221e-03
</event>
<event>
4 6 1.0 5000.0 7.905138e-03 7.739137e-02
21 -1 0 0 101 102  0.000000e+00  0.000000e+00  1.364672e+03  1.364672e+03 0.0 0.0 9.0
21 -1 0 0 103 101  0.000000e+00  0.000000e+00 -4.586670e+03  4.586670e+03 0.0 0.0 9.0
22  1 1 2   0   0 -5.416980e+02 -1.189958e+03  9.260047e+02  1.602162e+03 0.0 0.0 9.0
21  1 1 2 103 102  5.416980e+02  1.189958e+03 -4.148004e+03  4.349180e+03 0.0 0.0 9.0
#pdf 21 21 2.099495e-01 7.056416e-01 5000.0 1.105884e-01 9.653946e-05
</event>
<event>
4 6 1.0 5000.0 7.905138e-03 7.739137e-02
21 -1 0 0 103 101  0.000000e+00  0.000000e+00  4.044976e+03  4.044976e+03 0.0 0.0 9.0
21 -1 0 0 101 102  0.000000e+00  0.000000e+00 -1.551471e+03  1.551471e+03 0.0 0.0 9.0
21  1 1 2 103 102 -1.456122e+03 -2.375567e+01 -1.030064e+03  1.783784e+03 0.0 0.0 9.0
22  1 1 2   0   0  1.456122e+03  2.375567e+01  3.523569e+03  3.812662e+03 0.0 0.0 9.0
#pdf 21 21 6.223040e-01 2.386878e-01 5000.0 4.460022e-04 7.686740e-02
</event>
<event>
4 6 1.0 5000.0 7.905138e-03 7.739137e-02
21 -1 0 0 103 101  0.000000e+00  0.000000e+00  1.920001e+03  1.920001e+03 0.0 0.0 9.0
21 -1 0 0 101 102  0.000000e+00  0.000000e+00 -3.026673e+03  3.026673e+03 0.0 0.0 9.0
22  1 1 2   0   0 -1.109505e+03  1.382066e+03  1.123204e+03  2.098260e+03 0.0 0.0 9.0
21  1 1 2 103 102  1.109505e+03 -1.382066e+03 -2.229876e+03  2.848413e+03 0.0 0.0 9.0
#pdf 21 21 2.953847e-01 4.656419e-01 5000.0 3.815202e-02 4.487199e-03
</event>
<event>
4 6 1.0 5000.0 7.905138e-03 7.739137e-02
21 -1 0 0 101 102  0.000000e+00  0.000000e+00  2.761795e+03  2.761795e+03 0.0 0.0 9.0
21 -1 0 0 103 101  0.000000e+00  0.000000e+00 -2.426919e+03  2.426919e+03 0.0 0.0 9.0
21  1 1 2 103 102  1.776786e+03  1.548451e+03  1.241116e+03  2.663651e+03 0.0 0.0 9.0
22  1 1 2   0   0 -1.776786e+03 -1.548451e+03 -9.062402e+02  2.525062e+03 0.0 0.0 9.0
#pdf 21 21 4.248915e-01 3.733721e-01 5000.0 7.636874e-03 1.462110e-02
</event>
<event>
4 6 1.0 5000.0 7.905138e-03 7.739137e-02
21 -1 0 0 101 102  0.000000e+00  0.000000e+00  3.168825e+03  3.168825e+03 0.0 0.0 9.0
21 -1 0 0 103 101  0.000000e+00  0.000000e+00 -1.711166e+03  1.711166e+03 0.0 0.0 9.0
21  1 1 2 103 102 -7.609423e+02 -2.193325e+03  5.394119e+02  2.383416e+03 0.0 0.0 9.0
22  1 1 2   0   0  7.609423e+02  2.193325e+03  9.182473e+02  2.496575e+03 0.0 0.0 9.0
#pdf 21 21 4.875115e-01 2.632563e-01 5000.0 3.343552e-03 5.656355e-02
</event>
<event>
4 6 1.0 5000.0 7.905138e-03 7.739137e-02
21 -1 0 0 103 101  0.000000e+00  0.000000e+00  2.601655e+03  2.601655e+03 0.0 0.0 9.0
21 -1 0 0 101 102  0.000000e+00  0.000000e+00 -2.438528e+03  2.438528e+03 0.0 0.0 9.0
21  1 1 2 103 102 -3.163987e+02 -2.116099e+03 -1.248127e+03  2.477056e+03 0.0 0.0 9.0
22  1 1 2   0   0  3.163987e+02  2.116099e+03  1.411253e+03  2.563127e+03 0.0 0.0 9.0
#pdf 21 21 4.002546e-01 3.751582e-01 5000.0 1.044628e-02 1.430654e-02
</event>
<event>
4 6 1.0 5000.0 7.905138e-03 7.739137e-02
21 -1 0 0 103 101  0.000000e+00  0.000000e+00  2.337002e+03  2.337002e+03 0.0 0.0 9.0
21 -1 0 0 101 102  0.000000e+00  0.000000e+00 -2.133987e+03  2.133987e+03 0.0 0.0 9.0
21  1 1 2 103 102  3.132576e+02  2.204447e+03 -7.018706e+01  2.227699e+03 0.0 0.0 9.0
22  1 1 2   0   0 -3.132576e+02 -2.204447e+03  2.732022e+02  2.243291e+03 0.0 0.0 9.0
#pdf 21 21 3.595388e-01 3.283057e-01 5000.0 1.734615e-02 2.546894e-02
</event>
<event>
4 6 1.0 5000.0 7.905138e-03 7.739137e-02
21 -1 0 0 101 102  0.000000e+00  0.000000e+00  2.825550e+03  2.825550e+03 0.0 0.0 9.0
21 -1 0 0 103 101  0.000000e+00  0.000000e+00 -2.323833e+03  2.323833e+03 0.0 0.0 9.0
22  1 1 2   0   0  1.181969e+03  5.739380e+02 -1.959579e+03  2.359323e+03 0.0 0.0 9.0
21  1 1 2 103 102 -1.181969e+03 -5.739380e+02  2.461296e+03  2.790060e+03 0.0 0.0 9.0
#pdf 21 21 4.347000e-01 3.575128e-01 5000.0 6.734381e-03 1.778278e-02
</event>
<event>
4 6 1.0 5000.0 7.905138e-03 7.739137e-02
21 -1 0 0 101 102  0.000000e+00  0.000000e+00  2.241412e+03  2.241412e+03 0.0 0.0 9.0
21 -1 0 0 103 101  0.000000e+00  0.000000e+00 -2.909330e+03  2.909330e+03 0.0 0.0 9.0
21  1 1 2 103 102 -1.953488e+03 -1.620674e+03 -6.161788e+02  2.611967e+03 0.0 0.0 9.0
22  1 1 2   0   0  1.953488e+03  1.620674e+03 -5.173908e+01  2.538774e+03 0.0 0.0 9.0
#pdf 21 21 3.448326e-01 4.475892e-01 5000.0 2.079685e-02 5.690295e-03
</event>
<event>
4 6 1.0 5000.0 7.905138e-03 7.739137e-02
21 -1 0 0 101 102  0.000000e+00  0.000000e+00  2.025223e+03  2.025223e+03 0.0 0.0 9.0
21 -1 0 0 103 101  0.000000e+00  0.000000e+00 -3.074019e+03  3.074019e+03 0.0 0.0 9.0
21  1 1 2 103 102 -8.748422e+02 -6.707970e+01  1.862381e+03  2.058716e+03 0.0 0.0 9.0
22  1 1 2   0   0  8.748422e+02  6.707970e+01 -2.911177e+03  3.040526e+03 0.0 0.0 9.0
#pdf 21 21 3.115728e-01 4.729260e-01 5000.0 3.128130e-02 4.072454e-03
</event>
<event>
4 6 1.0 5000.0 7.905138e-03 7.739137e-02
21 -1 0 0 101 102  0.000000e+00  0.000000e+00  1.641248e+03  1.641248e+03 0.0 0.0 9.0
21 -1 0 0 103 101  0.000000e+00  0.000000e+00 -3.380146e+03  3.380146e+03 0.0 0.0 9.0
22  1 1 2   0   0 -1.554697e+03  1.243487e+03 -2.211163e+03  2.975329e+03 0.0 0.0 9.0
21  1 1 2 103 102  1.554697e+03 -1.243487e+03  4.722647e+02  2.046064e+03 0.0 0.0 9.0
#pdf 21 21 2.524996e-01 5.200224e-01 5000.0 6.470470e-02 2.130962e-03
</event>
<event>
4 6 1.0 5000.0 7.905138e-03 7.739137e-02
21 -1 0 0 101 102  0.000000e+00  0.000000e+00  3.336982e+03  3.336982e+03 0.0 0.0 9.0
21 -1 0 0 103 101  0.000000e+00  0.000000e+00 -1.771844e+03  1.771844e+03 0.0 0.0 9.0
22  1 1 2   0   0  2.377626e+03  4.099633e+02  4.649086e+02  2.457095e+03 0.0 0.0 9.0
21  1 1 2 103 102 -2.377626e+03 -4.099633e+02  1.100230e+03  2.651732e+03 0.0 0.0 9.0
#pdf 21 21 5.133819e-01 2.725914e-01 5000.0 2.340334e-03 5.041359e-02
</event>
<event>
4 6 1.0 5000.0 7.905138e-03 7.739137e-02
21 -1 0 0 103 101  0.000000e+00  0.000000e+00  2.100380e+03  2.100380e+03 0.0 0.0 9.0
21 -1 0 0 101 102  0.000000e+00  0.000000e+00 -2.969606e+03  2.969606e+03 0.0 0.0 9.0
22  1 1 2   0   0  1.099234e+02 -1.246928e+03  1.758974e+03  2.158912e+03 0.0 0.0 9.0
21  1 1 2 103 102 -1.099234e+02  1.246928e+03 -2.628200e+03  2.911073e+03 0.0 0.0 9.0
#pdf 21 21 3.231354e-01 4.568624e-01 5000.0 2.713134e-02 5.041957e-03
</event>
<event>
4 6 1.0 5000.0 7.905138e-03 7.739137e-02
21 -1 0 0 103 101  0.000000e+00  0.000000e+00  2.354377e+03  2.354377e+03 0.0 0.0 9.0
21 -1 0 0 101 102  0.000000e+00  0.000000e+00 -2.569839e+03  2.569839e+03 0.0 0.0 9.0
21  1 1 2 103 102  9.041329e+02  9.965596e+02 -2.168778e+03  2.552290e+03 0.0 0.0 9.0
22  1 1 2   0   0 -9.041329e+02 -9.965596e+02  1.953317e+03  2.371926e+03 0.0 0.0 9.0
#pdf 21 21 3.622119e-01 3.953599e-01 5000.0 1.678758e-02 1.110904e-02
</event>
<event>
4 6 1.0 5000.0 7.905138e-03 7.739137e-02
21 -1 0 0 103 101  0.000000e+00  0.000000e+00  1.685590e+03  1.685590e+03 0.0 0.0 9.0
21 -1 0 0 101 102  0.000000e+00  0.000000e+00 -3.641799e+03  3.641799e+03 0.0 0.0 9.0
21  1 1 2 103 102  1.506604e+03 -2.852055e+02  1.114176e+03  1.895412e+03 0.0 0.0 9.0
22  1 1 2   0   0 -1.506604e+03  2.852055e+02 -3.070385e+03  3.431977e+03 0.0 0.0 9.0
#pdf 21 21 2.593216e-01 5.602768e-01 5000.0 5.941071e-02 1.188385e-03
</event>
<event>
4 6 1.0 5000.0 7.905138e-03 7.739137e-02
21 -1 0 0 101 102  0.000000e+00  0.000000e+00  3.282722e+03  3.282722e+03 0.0 0.0 9.0
21 -1 0 0 103 101  0.000000e+00  0.000000e+00 -1.966599e+03  1.966599e+03 0.0 0.0 9.0
21  1 1 2 103 102  2.260509e+03 -3.867914e+02 -4.717780e+02  2.341385e+03 0.0 0.0 9.0
22  1 1 2   0   0 -2.260509e+03  3.867914e+02  1.787901e+03  2.907937e+03 0.0 0.0 9.0
#pdf 21 21 5.050342e-01 3.025537e-01 5000.0 2.628493e-03 3.492692e-02
</event>
<event>
4 6 1.0 5000.0 7.905138e-03 7.739137e-02
21 -1 0 0 101 102  0.000000e+00  0.000000e+00  4.341119e+03  4.341119e+03 0.0 0.0 9.0
21 -1 0 0 103 101  0.000000e+00  0.000000e+00 -1.423806e+03  1.423806e+03 0.0 0.0 9.0
21  1 1 2 103 102  1.906461e+03  1.488188e+02  3.300686e+03  3.814613e+03 0.0 0.0 9.0
22  1 1 2   0   0 -1.906461e+03 -1.488188e+02 -3.833727e+02  1.950312e+03 0.0 0.0 9.0
#pdf 21 21 6.678645e-01 2.190470e-01 5000.0 2.004465e-04 9.847158e-02
</event>
<event>
4 6 1.0 5000.0 7.905138e-03 7.739137e-02
21 -1 0 0 103 101  0.000000e+00  0.000000e+00  4.261190e+03  4.261190e+03 0.0 0.0 9.0
21 -1 0 0 101 102  0.000000e+00  0.000000e+00 -1.468736e+03  1.468736e+03 0.0 0.0 9.0
22  1 1 2   0   0 -1.974946e+03 -1.472646e+03  1.894703e+03  3.107893e+03 0.0 0.0 9.0
21  1 1 2 103 102  1.974946e+03  1.472646e+03  8.977501e+02  2.622032e+03 0.0 0.0 9.0
#pdf 21 21 6.555676e-01 2.259594e-01 5000.0 2.511653e-04 9.013570e-02
</event>
<event>
4 6 1.0 5000.0 7.905138e-03 7.739137e-02
21 -1 0 0 101 102  0.000000e+00  0.000000e+00  3.297366e+03  3.297366e+03 0.0 0.0 9.0
21 -1 0 0 103 101  0.000000e+00  0.000000e+00 -1.845432e+03  1.845432e+03 0.0 0.0 9.0
22  1 1 2   0   0 -7.568341e+02  2.270025e+03  1.011710e+02  2.395004e+03 0.0 0.0 9.0
21  1 1 2 103 102  7.568341e+02 -2.270025e+03  1.350763e+03  2.747794e+03 0.0 0.0 9.0
#pdf 21 21 5.072871e-01 2.839126e-01 5000.0 2.547670e-03 4.386215e-02
</event>
<event>
4 6 1.0 5000.0 7.905138e-03 7.739137e-02
21 -1 0 0 101 102  0.000000e+00  0.000000e+00  1.661465e+03  1.661465e+03 0.0 0.0 9.0
21 -1 0 0 103 101  0.000000e+00  0.000000e+00 -3.225997e+03  3.225997e+03 0.0 0.0 9.0
22  1 1 2   0   0 -5.974042e+02 -1.367586e+03  1.085984e+03  1.845683e+03 0.0 0.0 9.0
21  1 1 2 103 102  5.974042e+02  1.367586e+03 -2.650517e+03  3.041779e+03 0.0 0.0 9.0
#pdf 21 21 2.556100e-01 4.963073e-01 5000.0 6.224062e-02 2.965739e-03
</event>
<event>
4 6 1.0 5000.0 7.905138e-03 7.739137e-02
21 -1 0 0 103 101  0.000000e+00  0.000000e+00  2.580369e+03  2.580369e+03 0.0 0.0 9.0
21 -1 0 0 101 102  0.000000e+00  0.000000e+00 -2.449440e+03  2.449440e+03 0.0 0.0 9.0
21  1 1 2 103 102  1.299688e+03  7.681083e+02 -1.945510e+03  2.462557e+03 0.0 0.0 9.0
22  1 1 2   0   0 -1.299688e+03 -7.681083e+02  2.076440e+03  2.567252e+03 0.0 0.0 9.0
#pdf 21 21 3.969799e-01 3.768369e-01 5000.0 1.088525e-02 1.401469e-02
</event>
<event>
4 6 1.0 5000.0 7.905138e-03 7.739137e-02
21 -1 0 0 103 101  0.000000e+00  0.000000e+00  3.434491e+03  3.434491e+03 0.0 0.0 9.0
21 -1 0 0 101 102  0.000000e+00  0.000000e+00 -1.737200e+03  1.737200e+03 0.0 0.0 9.0
22  1 1 2   0   0 -7.190067e+02 -1.461674e+03  2.775518e+03  3.218224e+03 0.0 0.0 9.0
21  1 1 2 103 102  7.190067e+02  1.461674e+03 -1.078228e+03  1.953468e+03 0.0 0.0 9.0
#pdf 21 21 5.283833e-01 2.672616e-01 5000.0 1.893230e-03 5.383074e-02
</event>
<event>
4 6 1.0 5000.0 7.905138e-03 7.739137e-02
21 -1 0 0 103 101  0.000000e+00  0.000000e+00  2.564270e+03  2.564270e+03 0.0 0.0 9.0
21 -1 0 0 101 102  0.000000e+00  0.000000e+00 -2.392316e+03  2.392316e+03 0.0 0.0 9.0
22  1 1 2   0   0 -1.798719e+03 -1.568355e+03 -5.773069e+02  2.455282e+03 0.0 0.0 9.0
21  1 1 2 103 102  1.798719e+03  1.568355e+03  7.492613e+02  2.501304e+03 0.0 0.0 9.0
#pdf 21 21 3.945031e-01 3.680486e-01 5000.0 1.122926e-02 1.561259e-02
</event>
<event>
4 6 1.0 5000.0 7.905138e-03 7.739137e-02
21 -1 0 0 103 101  0.000000e+00  0.000000e+00  2.035244e+03  2.035244e+03 0.0 0.0 9.0
21 -1 0 0 101 102  0.000000e+00  0.000000e+00 -2.919040e+03  2.919040e+03 0.0 0.0 9.0
22  1 1 2   0   0  1.579004e+02 -4.662609e+02 -2.867993e+03  2.909934e+03 0.0 0.0 9.0
21  1 1 2 103 102 -1.579004e+02  4.662609e+02  1.984197e+03  2.044350e+03 0.0 0.0 9.0
#pdf 21 21 3.131145e-01 4.490831e-01 5000.0 3.068962e-02 5.582510e-03
</event>
<event>
4 6 1.0 5000.0 7.905138e-03 7.739137e-02
21 -1 0 0 101 102  0.000000e+00  0.000000e+00  2.225300e+03  2.225300e+03 0.0 0.0 9.0
21 -1 0 0 103 101  0.000000e+00  0.000000e+00 -2.143862e+03  2.143862e+03 0.0 0.0 9.0
22  1 1 2   0   0 -2.225687e+02 -1.553371e+03  1.560272e+03  2.212905e+03 0.0 0.0 9.0
21  1 1 2 103 102  2.225687e+02  1.553371e+03 -1.478834e+03  2.156258e+03 0.0 0.0 9.0
#pdf 21 21 3.423539e-01 3.298249e-01 5000.0 2.143659e-02 2.499979e-02
</event>
<event>
4 6 1.0 5000.0 7.905138e-03 7.739137e-02
21 -1 0 0 101 102  0.000000e+00  0.000000e+00  1.303351e+03  1.303351e+03 0.0 0.0 9.0
21 -1 0 0 103 101  0.000000e+00  0.000000e+00 -3.377399e+03  3.377399e+03 0.0 0.0 9.0
21  1 1 2 103 102  1.197119e+03 -1.660197e+03 -1.551342e+03  2.568270e+03 0.0 0.0 9.0
22  1 1 2   0   0 -1.197119e+03  1.660197e+03 -5.227050e+02  2.112480e+03 0.0 0.0 9.0
#pdf 21 21 2.005156e-01 5.195998e-01 5000.0 1.249730e-01 2.143739e-03
</event>
<event>
4 6 1.0 5000.0 7.905138e-03 7.739137e-02
21 -1 0 0 103 101  0.000000e+00  0.000000e+00  2.196225e+03  2.196225e+03 0.0 0.0 9.0
21 -1 0 0 101 102  0.000000e+00  0.000000e+00 -2.779976e+03  2.779976e+03 0.0 0.0 9.0
22  1 1 2   0   0 -2.100134e+03  3.439998e+00 -1.602802e+03  2.641883e+03 0.0 0.0 9.0
21  1 1 2 103 102  2.100134e+03 -3.439998e+00  1.019051e+03  2.334318e+03 0.0 0.0 9.0
#pdf 21 21 3.378807e-01 4.276886e-01 5000.0 2.264390e-02 7.366431e-03
</event>
<event>
4 6 1.0 5000.0 7.905138e-03 7.739137e-02
21 -1 0 0 101 102  0.000000e+00  0.000000e+00  2.119011e+03  2.119011e+03 0.0 0.0 9.0
21 -1 0 0 103 101  0.000000e+00  0.000000e+00 -2.642244e+03  2.642244e+03 0.0 0.0 9.0
21  1 1 2 103 102  1.214058e+03  4.906515e+01  1.781174e+03  2.156137e+03 0.0 0.0 9.0
22  1 1 2   0   0 -1.214058e+03 -4.906515e+01 -2.304408e+03  2.605118e+03 0.0 0.0 9.0
#pdf 21 21 3.260016e-01 4.064991e-01 5000.0 2.619683e-02 9.654397e-03
</event>
<event>
4 6 1.0 5000.0 7.905138e-03 7.739137e-02
21 -1 0 0 101 102  0.000000e+00  0.000000e+00  1.715854e+03  1.715854e+03 0.0 0.0 9.0
21 -1 0 0 103 101  0.000000e+00  0.000000e+00 -3.443126e+03  3.443126e+03 0.0 0.0 9.0
21  1 1 2 103 102 -2.508006e+02  1.587845e+03  1.071143e+03  1.931709e+03 0.0 0.0 9.0
22  1 1 2   0   0  2.508006e+02 -1.587845e+03 -2.798414e+03  3.227271e+03 0.0 0.0 9.0
#pdf 21 21 2.639775e-01 5.297116e-01 5000.0 5.606023e-02 1.857716e-03
</event>
<event>
4 6 1.0 5000.0 7.905138e-03 7.739137e-02
21 -1 0 0 103 101  0.000000e+00  0.000000e+00  4.040514e+03  4.040514e+03 0.0 0.0 9.0
21 -1 0 0 101 102  0.000000e+00  0.000000e+00 -1.503122e+03  1.503122e+03 0.0 0.0 9.0
21  1 1 2 103 102 -2.156486e+03  7.528439e+01  2.607687e+03  3.384691e+03 0.0 0.0 9.0
22  1 1 2   0   0  2.156486e+03 -7.528439e+01 -7.029513e+01  2.158944e+03 0.0 0.0 9.0
#pdf 21 21 6.216175e-01 2.312495e-01 5000.0 4.511336e-04 8.431190e-02
</event>
<event>
4 6 1.0 5000.0 7.905138e-03 7.739137e-02
21 -1 0 0 101 102  0.000000e+00  0.000000e+00  2.147532e+03  2.147532e+03 0.0 0.0 9.0
21 -1 0 0 103 101  0.000000e+00  0.000000e+00 -3.041529e+03  3.041529e+03 0.0 0.0 9.0
22  1 1 2   0   0 -1.408690e+03  2.017182e+03 -1.149128e+03  2.715497e+03 0.0 0.0 9.0
21  1 1 2 103 102  1.408690e+03 -2.017182e+03  2.551301e+02  2.473564e+03 0.0 0.0 9.0
#pdf 21 21 3.303895e-01 4.679276e-01 5000.0 2.482755e-02 4.353203e-03
</event>
<event>
4 6 1.0 5000.0 7.905138e-03 7.739137e-02
21 -1 0 0 101 102  0.000000e+00  0.000000e+00  3.262410e+03  3.262410e+03 0.0 0.0 9.0
21 -1 0 0 103 101  0.000000e+00  0.000000e+00 -2.087330e+03  2.087330e+03 0.0 0.0 9.0
21  1 1 2 103 102 -2.063162e+03  1.471735e+02 -1.043335e+03  2.316645e+03 0.0 0.0 9.0
22  1 1 2   0   0  2.063162e+03 -1.471735e+02  2.218416e+03  3.033095e+03 0.0 0.0 9.0
#pdf 21 21 5.019092e-01 3.211277e-01 5000.0 2.744766e-03 2.780619e-02
</event>
<event>
4 6 1.0 5000.0 7.905138e-03 7.739137e-02
21 -1 0 0 101 102  0.000000e+00  0.000000e+00  1.374980e+03  1.374980e+03 0.0 0.0 9.0
21 -1 0 0 103 101  0.000000e+00  0.000000e+00 -3.361769e+03  3.361769e+03 0.0 0.0 9.0
22  1 1 2   0   0  1.042256e+03  1.820462e+03 -1.512411e+03  2.586072e+03 0.0 0.0 9.0
21  1 1 2 103 102 -1.042256e+03 -1.820462e+03 -4.743776e+02  2.150678e+03 0.0 0.0 9.0
#pdf 21 21 2.115355e-01 5.171952e-01 5000.0 1.083859e-01 2.218028e-03
</event>
<event>
4 6 1.0 5000.0 7.905138e-03 7.739137e-02
21 -1 0 0 101 102  0.000000e+00  0.000000e+00  1.455639e+03  1.455639e+03 0.0 0.0 9.0
21 -1 0 0 103 101  0.000000e+00  0.000000e+00 -3.969292e+03  3.969292e+03 0.0 0.0 9.0
22  1 1 2   0   0  6.272439e+02  5.718211e+02 -3.794562e+03  3.888330e+03 0.0 0.0 9.0
21  1 1 2 103 102 -6.272439e+02 -5.718211e+02  1.280908e+03  1.536600e+03 0.0 0.0 9.0
#pdf 21 21 2.239444e-01 6.106603e-01 5000.0 9.248552e-02 5.403256e-04
</event>
<event>
4 6 1.0 5000.0 7.905138e-03 7.739137e-02
21 -1 0 0 101 102  0.000000e+00  0.000000e+00  2.660638e+03  2.660638e+03 0.0 0.0 9.0
21 -1 0 0 103 101  0.000000e+00  0.000000e+00 -1.760802e+03  1.760802e+03 0.0 0.0 9.0
22  1 1 2   0   0  6.140009e+02 -4.118820e+02  2.527662e+03  2.633575e+03 0.0 0.0 9.0
21  1 1 2 103 102 -6.140009e+02  4.118820e+02 -1.627826e+03  1.787865e+03 0.0 0.0 9.0
#pdf 21 21 4.093289e-01 2.708926e-01 5000.0 9.313058e-03 5.147725e-02
</event>
<event>
4 6 1.0 5000.0 7.905138e-03 7.739137e-02
21 -1 0 0 103 101  0.000000e+00  0.000000e+00  3.256915e+03  3.256915e+03 0.0 0.0 9.0
21 -1 0 0 101 102  0.000000e+00  0.000000e+00 -1.950014e+03  1.950014e+03 0.0 0.0 9.0
22  1 1 2   0   0 -1.190941e+02 -2.513504e+03  5.105019e+02  2.567586e+03 0.0 0.0 9.0
21  1 1 2 103 102  1.190941e+02  2.513504e+03  7.963989e+02  2.639344e+03 0.0 0.0 9.0
#pdf 21 21 5.010638e-01 3.000022e-01 5000.0 2.777103e-03 3.600975e-02
</event>
<event>
4 6 1.0 5000.0 7.905138e-03 7.739137e-02
21 -1 0 0 101 102  0.000000e+00  0.000000e+00  1.559462e+03  1.559462e+03 0.0 0.0 9.0
21 -1 0 0 103 101  0.000000e+00  0.000000e+00 -4.068396e+03  4.068396e+03 0.0 0.0 9.0
21  1 1 2 103 102  1.502571e+03 -1.414909e+02  9.984168e+02  1.809579e+03 0.0 0.0 9.0
22  1 1 2   0   0 -1.502571e+03  1.414909e+02 -3.507351e+03  3.818279e+03 0.0 0.0 9.0
#pdf 21 21 2.399172e-01 6.259071e-01 5000.0 7.569563e-02 4.198080e-04
</event>
<event>
4 6 1.0 5000.0 7.905138e-03 7.739137e-02
21 -1 0 0 101 102  0.000000e+00  0.000000e+00  2.023143e+03  2.023143e+03 0.0 0.0 9.0
21 -1 0 0 103 101  0.000000e+00  0.000000e+00 -3.210276e+03  3.210276e+03 0.0 0.0 9.0
22  1 1 2   0   0 -1.213533e+03 -5.663073e+02  1.632758e+03  2.111697e+03 0.0 0.0 9.0
21  1 1 2 103 102  1.213533e+03  5.663073e+02 -2.819891e+03  3.121722e+03 0.0 0.0 9.0
#pdf 21 21 3.112528e-01 4.938886e-01 5000.0 3.140548e-02 3.065639e-03
</event>
<event>
4 6 1.0 5000.0 7.905138e-03 7.739137e-02
21 -1 0 0 101 102  0.000000e+00  0.000000e+00  1.505713e+03  1.505713e+03 0.0 0.0 9.0
21 -1 0 0 103 101  0.000000e+00  0.000000e+00 -3.478138e+03  3.478138e+03 0.0 0.0 9.0
21  1 1 2 103 102  1.519413e+03 -1.192906e+03 -2.322259e+03  3.020684e+03 0.0 0.0 9.0
22  1 1 2   0   0 -1.519413e+03  1.192906e+03  3.498343e+02  1.963168e+03 0.0 0.0 9.0
#pdf 21 21 2.316482e-01 5.350982e-01 5000.0 8.389353e-02 1.718533e-03
</event>
<event>
4 6 1.0 5000.0 7.905138e-03 7.739137e-02
21 -1 0 0 103 101  0.000000e+00  0.000000e+00  1.778953e+03  1.778953e+03 0.0 0.0 9.0
21 -1 0 0 101 102  0.000000e+00  0.000000e+00 -3.357002e+03  3.357002e+03 0.0 0.0 9.0
21  1 1 2 103 102 -1.397655e+03  1.395659e+03  7.230943e+02  2.103371e+03 0.0 0.0 9.0
22  1 1 2   0   0  1.397655e+03 -1.395659e+03 -2.301143e+03  3.032584e+03 0.0 0.0 9.0
#pdf 21 21 2.736851e-01 5.164619e-01 5000.0 4.974075e-02 2.241148e-03
</event>
<event>
4 6 1.0 5000.0 7.905138e-03 7.739137e-02
21 -1 0 0 103 101  0.000000e+00  0.000000e+00  1.389756e+03  1.389756e+03 0.0 0.0 9.0
21 -1 0 0 101 102  0.000000e+00  0.000000e+00 -3.797509e+03  3.797509e+03 0.0 0.0 9.0
21  1 1 2 103 102 -9.845860e+02  2.039688e+03 -1.638023e+03  2.795149e+03 0.0 0.0 9.0
22  1 1 2   0   0  9.845860e+02 -2.039688e+03 -7.697301e+02  2.392117e+03 0.0 0.0 9.0
#pdf 21 21 2.138086e-01 5.842322e-01 5000.0 1.052944e-01 8.231313e-04
</event>
<event>
4 6 1.0 5000.0 7.905138e-03 7.739137e-02
21 -1 0 0 101 102  0.000000e+00  0.000000e+00  4.964197e+03  4.964197e+03 0.0 0.0 9.0
21 -1 0 0 103 101  0.000000e+00  0.000000e+00 -1.240702e+03  1.240702e+03 0.0 0.0 9.0
22  1 1 2   0   0  2.452924e+02  2.026476e+03  3.626263e+03  4.161316e+03 0.0 0.0 9.0
21  1 1 2 103 102 -2.452924e+02 -2.026476e+03  9.723202e+01  2.043582e+03 0.0 0.0 9.0
#pdf 21 21 7.637226e-01 1.908772e-01 5000.0 2.649280e-05 1.417967e-01
</event>
<event>
4 6 1.0 5000.0 7.905138e-03 7.739137e-02
21 -1 0 0 101 102  0.000000e+00  0.000000e+00  4.010588e+03  4.010588e+03 0.0 0.0 9.0
21 -1 0 0 103 101  0.000000e+00  0.000000e+00 -1.575796e+03  1.575796e+03 0.0 0.0 9.0
22  1 1 2   0   0  2.067763e+03 -1.167281e+02 -3.658877e+02  2.103127e+03 0.0 0.0 9.0
21  1 1 2 103 102 -2.067763e+03  1.167281e+02  2.800680e+03  3.483257e+03 0.0 0.0 9.0
#pdf 21 21 6.170136e-01 2.424301e-01 5000.0 4.868410e-04 7.333575e-02
</event>
<event>
4 6 1.0 5000.0 7.905138e-03 7.739137e-02
21 -1 0 0 103 101  0.000000e+00  0.000000e+00  2.846262e+03  2.846262e+03 0.0 0.0 9.0
21 -1 0 0 101 102  0.000000e+00  0.000000e+00 -1.945853e+03  1.945853e+03 0.0 0.0 9.0
21  1 1 2 103 102 -1.274611e+03  1.040762e+03 -1.262740e+03  2.074206e+03 0.0 0.0 9.0
22  1 1 2   0   0  1.274611e+03 -1.040762e+03  2.163149e+03  2.717909e+03 0.0 0.0 9.0
#pdf 21 21 4.378864e-01 2.993620e-01 5000.0 6.464896e-03 3.630337e-02
</event>
<event>
4 6 1.0 5000.0 7.905138e-03 7.739137e-02
21 -1 0 0 103 101  0.000000e+00  0.000000e+00  2.505028e+03  2.505028e+03 0.0 0.0 9.0
21 -1 0 0 101 102  0.000000e+00  0.000000e+00 -2.727089e+03  2.727089e+03 0.0 0.0 9.0
22  1 1 2   0   0  1.735799e+03  1.141236e+03 -1.698656e+03  2.683440e+03 0.0 0.0 9.0
21  1 1 2 103 102 -1.735799e+03 -1.141236e+03  1.476595e+03  2.548676e+03 0.0 0.0 9.0
#pdf 21 21 3.853889e-01 4.195521e-01 5000.0 1.259493e-02 8.176866e-03
</event>
<event>
4 6 1.0 5000.0 7.905138e-03 7.739137e-02
21 -1 0 0 101 102  0.000000e+00  0.000000e+00  1.889460e+03  1.889460e+03 0.0 0.0 9.0
21 -1 0 0 103 101  0.000000e+00  0.000000e+00 -2.782252e+03  2.782252e+03 0.0 0.0 9.0
22  1 1 2   0   0 -1.045332e+03 -1.615147e+03  8.242333e+02  2.093031e+03 0.0 0.0 9.0
21  1 1 2 103 102  1.045332e+03  1.615147e+03 -1.717025e+03  2.578681e+03 0.0 0.0 9.0
#pdf 21 21 2.906861e-01 4.280387e-01 5000.0 4.040214e-02 7.333296e-03
</event>
<event>
4 6 1.0 5000.0 7.905138e-03 7.739137e-02
21 -1 0 0 101 102  0.000000e+00  0.000000e+00  2.094004e+03  2.094004e+03 0.0 0.0 9.0
21 -1 0 0 103 101  0.000000e+00  0.000000e+00 -3.862424e+03  3.862424e+03 0.0 0.0 9.0
22  1 1 2   0   0  7.103805e+02  2.726343e+03 -1.290266e+03  3.098769e+03 0.0 0.0 9.0
21  1 1 2 103 102 -7.103805e+02 -2.726343e+03 -4.781546e+02  2.857659e+03 0.0 0.0 9.0
#pdf 21 21 3.221545e-01 5.942191e-01 5000.0 2.745891e-02 7.034825e-04
</event>
<event>
4 6 1.0 5000.0 7.905138e-03 7.739137e-02
21 -1 0 0 103 101  0.000000e+00  0.000000e+00  2.165038e+03  2.165038e+03 0.0 0.0 9.0
21 -1 0 0 101 102  0.000000e+00  0.000000e+00 -2.932434e+03  2.932434e+03 0.0 0.0 9.0
21  1 1 2 103 102  1.407021e+03 -4.271763e+02  1.686019e+03  2.237151e+03 0.0 0.0 9.0
22  1 1 2   0   0 -1.407021e+03  4.271763e+02 -2.453415e+03  2.860321e+03 0.0 0.0 9.0
#pdf 21 21 3.330827e-01 4.511438e-01 5000.0 2.402103e-02 5.436330e-03
</event>
<event>
4 6 1.0 5000.0 7.905138e-03 7.739137e-02
21 -1 0 0 101 102  0.000000e+00  0.000000e+00  3.329491e+03  3.329491e+03 0.0 0.0 9.0
21 -1 0 0 103 101  0.000000e+00  0.000000e+00 -1.857806e+03  1.857806e+03 0.0 0.0 9.0
21  1 1 2 103 102  4.593581e+02  2.360573e+03  1.397237e+03  2.781292e+03 0.0 0.0 9.0
22  1 1 2   0   0 -4.593581e+02 -2.360573e+03  7.444797e+01  2.406005e+03 0.0 0.0 9.0
#pdf 21 21 5.122294e-01 2.858164e-01 5000.0 2.378363e-03 4.285680e-02
</event>
<event>
4 6 1.0 5000.0 7.905138e-03 7.739137e-02
21 -1 0 0 103 101  0.000000e+00  0.000000e+00  2.823581e+03  2.823581e+03 0.0 0.0 9.0
21 -1 0 0 101 102  0.000000e+00  0.000000e+00 -2.127562e+03  2.127562e+03 0.0 0.0 9.0
21  1 1 2 103 102 -1.270878e+01 -1.284793e+03  2.456164e+03  2.771930e+03 0.0 0.0 9.0
22  1 1 2   0   0  1.270878e+01  1.284793e+03 -1.760145e+03  2.179212e+03 0.0 0.0 9.0
#pdf 21 21 4.343970e-01 3.273172e-01 5000.0 6.760487e-03 2.577877e-02
</event>
<event>
4 6 1.0 5000.0 7.905138e-03 7.739137e-02
21 -1 0 0 103 101  0.000000e+00  0.000000e+00  2.833897e+03  2.833897e+03 0.0 0.0 9.0
21 -1 0 0 101 102  0.000000e+00  0.000000e+00 -2.148170e+03  2.148170e+03 0.0 0.0 9.0
21  1 1 2 103 102 -8.196544e+02 -1.537172e+03  2.106925e+03  2.733837e+03 0.0 0.0 9.0
22  1 1 2   0   0  8.196544e+02  1.537172e+03 -1.421199e+03  2.248230e+03 0.0 0.0 9.0
#pdf 21 21 4.359841e-01 3.304878e-01 5000.0 6.624699e-03 2.479769e-02
</event>
<event>
4 6 1.0 5000.0 7.905138e-03 7.739137e-02
21 -1 0 0 103 101  0.000000e+00  0.000000e+00  2.532299e+03  2.532299e+03 0.0 0.0 9.0
21 -1 0 0 101 102  0.000000e+00  0.000000e+00 -2.525384e+03  2.525384e+03 0.0 0.0 9.0
22  1 1 2   0   0 -1.794237e+03  4.190363e+02  1.735554e+03  2.531210e+03 0.0 0.0 9.0
21  1 1 2 103 102  1.794237e+03 -4.190363e+02 -1.728638e+03  2.526473e+03 0.0 0.0 9.0
#pdf 21 21 3.895845e-01 3.885206e-01 5000.0 1.194588e-02 1.210720e-02
</event>
<event>
4 6 1.0 5000.0 7.905138e-03 7.739137e-02
21 -1 0 0 101 102  0.000000e+00  0.000000e+00  3.818262e+03  3.818262e+03 0.0 0.0 9.0
21 -1 0 0 103 101  0.000000e+00  0.000000e+00 -1.646320e+03  1.646320e+03 0.0 0.0 9.0
21  1 1 2 103 102  2.158563e+03 -7.246938e+02  2.229719e+03  3.186883e+03 0.0 0.0 9.0
22  1 1 2   0   0 -2.158563e+03  7.246938e+02 -5.777707e+01  2.277699e+03 0.0 0.0 9.0
#pdf 21 21 5.874249e-01 2.532800e-01 5000.0 7.831730e-04 6.407935e-02
</event>
<event>
4 6 1.0 5000.0 7.905138e-03 7.739137e-02
21 -1 0 0 101 102  0.000000e+00  0.000000e+00  2.035943e+03  2.035943e+03 0.0 0.0 9.0
21 -1 0 0 103 101  0.000000e+00  0.000000e+00 -3.047010e+03  3.047010e+03 0.0 0.0 9.0
22  1 1 2   0   0  1.045281e+03 -1.196829e+03  1.451522e+03  2.152192e+03 0.0 0.0 9.0
21  1 1 2 103 102 -1.045281e+03  1.196829e+03 -2.462589e+03  2.930761e+03 0.0 0.0 9.0
#pdf 21 21 3.132220e-01 4.687707e-01 5000.0 3.064875e-02 4.304677e-03
</event>
<event>
4 6 1.0 5000.0 7.905138e-03 7.739137e-02
21 -1 0 0 103 101  0.000000e+00  0.000000e+00  2.439775e+03  2.439775e+03 0.0 0.0 9.0
21 -1 0 0 101 102  0.000000e+00  0.000000e+00 -2.583821e+03  2.583821e+03 0.0 0.0 9.0
22  1 1 2   0   0 -3.127286e+02 -1.443513e+03  1.959185e+03  2.453555e+03 0.0 0.0 9.0
21  1 1 2 103 102  3.127286e+02  1.443513e+03 -2.103231e+03  2.570041e+03 0.0 0.0 9.0
#pdf 21 21 3.753500e-01 3.975109e-01 5000.0 1.427300e-02 1.081287e-02
</event>
<event>
4 6 1.0 5000.0 7.905138e-03 7.739137e-02
21 -1 0 0 103 101  0.000000e+00  0.000000e+00  3.672846e+03  3.672846e+03 0.0 0.0 9.0
21 -1 0 0 101 102  0.000000e+00  0.000000e+00 -1.620016e+03  1.620016e+03 0.0 0.0 9.0
21  1 1 2 103 102  6.927902e+02  2.247490e+03  1.728604e+03  2.918774e+03 0.0 0.0 9.0
22  1 1 2   0   0 -6.927902e+02 -2.247490e+03  3.242260e+02  2.374088e+03 0.0 0.0 9.0
#pdf 21 21 5.650532e-01 2.492333e-01 5000.0 1.105650e-03 6.736784e-02
</event>
<event>
4 6 1.0 5000.0 7.905138e-03 7.739137e-02
21 -1 0 0 101 102  0.000000e+00  0.000000e+00  2.693239e+03  2.693239e+03 0.0 0.0 9.0
21 -1 0 0 103 101  0.000000e+00  0.000000e+00 -2.192872e+03  2.192872e+03 0.0 0.0 9.0
22  1 1 2   0   0  3.417433e+02  1.003239e+03 -1.948302e+03  2.217918e+03 0.0 0.0 9.0
21  1 1 2 103 102 -3.417433e+02 -1.003239e+03  2.448669e+03  2.668193e+03 0.0 0.0 9.0
#pdf 21 21 4.143444e-01 3.373649e-01 5000.0 8.737232e-03 2.278793e-02
</event>
<event>
4 6 1.0 5000.0 7.905138e-03 7.739137e-02
21 -1 0 0 101 102  0.000000e+00  0.000000e+00  1.937504e+03  1.937504e+03 0.0 0.0 9.0
21 -1 0 0 103 101  0.000000e+00  0.000000e+00 -2.911208e+03  2.911208e+03 0.0 0.0 9.0
22  1 1 2   0   0  6.153950e+02  2.218819e+03 -1.080855e+03  2.543642e+03 0.0 0.0 9.0
21  1 1 2 103 102 -6.153950e+02 -2.218819e+03  1.071509e+02  2.305070e+03 0.0 0.0 9.0
#pdf 21 21 2.980776e-01 4.478781e-01 5000.0 3.689655e-02 5.669189e-03
</event>
<event>
4 6 1.0 5000.0 7.905138e-03 7.739137e-02
21 -1 0 0 101 102  0.000000e+00  0.000000e+00  2.453183e+03  2.453183e+03 0.0 0.0 9.0
21 -1 0 0 103 101  0.000000e+00  0.000000e+00 -2.286319e+03  2.286319e+03 0.0 0.0 9.0
21  1 1 2 103 102 -1.170372e+03 -1.880783e+03  9.215947e+02  2.399261e+03 0.0 0.0 9.0
22  1 1 2   0   0  1.170372e+03  1.880783e+03 -7.547303e+02  2.340242e+03 0.0 0.0 9.0
#pdf 21 21 3.774128e-01 3.517414e-01 5000.0 1.391547e-02 1.910426e-02
</event>
<event>
4 6 1.0 5000.0 7.905138e-03 7.739137e-02
21 -1 0 0 101 102  0.000000e+00  0.000000e+00  2.146387e+03  2.146387e+03 0.0 0.0 9.0
21 -1 0 0 103 101  0.000000e+00  0.000000e+00 -3.274880e+03  3.274880e+03 0.0 0.0 9.0
22  1 1 2   0   0 -1.524773e+03  1.369358e+03  1.155412e+03  2.352669e+03 0.0 0.0 9.0
21  1 1 2 103 102  1.524773e+03 -1.369358e+03 -2.283905e+03  3.068598e+03 0.0 0.0 9.0
#pdf 21 21 3.302134e-01 5.038276e-01 5000.0 2.488116e-02 2.672794e-03
</event>
<event>
4 6 1.0 5000.0 7.905138e-03 7.739137e-02
21 -1 0 0 101 102  0.000000e+00  0.000000e+00  1.533832e+03  1.533832e+03 0.0 0.0 9.0
21 -1 0 0 103 101  0.000000e+00  0.000000e+00 -3.713688e+03  3.713688e+03 0.0 0.0 9.0
21  1 1 2 103 102 -2.133422e+03  1.877182e+02 -2.247867e+03  3.104776e+03 0.0 0.0 9.0
22  1 1 2   0   0  2.133422e+03 -1.877182e+02  6.801124e+01  2.142744e+03 0.0 0.0 9.0
#pdf 21 21 2.359742e-01 5.713366e-01 5000.0 7.950447e-02 1.004008e-03
</event>
<event>
4 6 1.0 5000.0 7.905138e-03 7.739137e-02
21 -1 0 0 103 101  0.000000e+00  0.000000e+00  2.293541e+03  2.293541e+03 0.0 0.0 9.0
21 -1 0 0 101 102  0.000000e+00  0.000000e+00 -2.788585e+03  2.788585e+03 0.0 0.0 9.0
22  1 1 2   0   0 -3.897487e+02  1.096090e+03  2.008740e+03  2.321283e+03 0.0 0.0 9.0
21  1 1 2 103 102  3.897487e+02 -1.096090e+03 -2.503784e+03  2.760843e+03 0.0 0.0 9.0
#pdf 21 21 3.528524e-01 4.290131e-01 5000.0 1.884260e-02 7.242047e-03
</event>
<event>
4 6 1.0 5000.0 7.905138e-03 7.739137e-02
21 -1 0 0 101 102  0.000000e+00  0.000000e+00  2.586718e+03  2.586718e+03 0.0 0.0 9.0
21 -1 0 0 103 101  0.000000e+00  0.000000e+00 -2.332821e+03  2.332821e+03 0.0 0.0 9.0
22  1 1 2   0   0  1.051228e+01  1.775454e+03 -1.572963e+03  2.372037e+03 0.0 0.0 9.0
21  1 1 2 103 102 -1.051228e+01 -1.775454e+03  1.826860e+03  2.547502e+03 0.0 0.0 9.0
#pdf 21 21 3.979566e-01 3.588956e-01 5000.0 1.075248e-02 1.748339e-02
</event>
<event>
4 6 1.0 5000.0 7.905138e-03 7.739137e-02
21 -1 0 0 103 101  0.000000e+00  0.000000e+00  1.935270e+03  1.935270e+03 0.0 0.0 9.0
21 -1 0 0 101 102  0.000000e+00  0.000000e+00 -2.696891e+03  2.696891e+03 0.0 0.0 9.0
21  1 1 2 103 102 -6.376444e+02 -1.938893e+02  1.834523e+03  1.951835e+03 0.0 0.0 9.0
22  1 1 2   0   0  6.376444e+02  1.938893e+02 -2.596144e+03  2.680326e+03 0.0 0.0 9.0
#pdf 21 21 2.977338e-01 4.149063e-01 5000.0 3.705583e-02 8.675023e-03
</event>
<event>
4 6 1.0 5000.0 7.905138e-03 7.739137e-02
21 -1 0 0 101 102  0.000000e+00  0.000000e+00  2.813146e+03  2.813146e+03 0.0 0.0 9.0
21 -1 0 0 103 101  0.000000e+00  0.000000e+00 -1.934255e+03  1.934255e+03 0.0 0.0 9.0
21  1 1 2 103 102 -1.585088e+03  1.672071e+03  8.105735e+02  2.442408e+03 0.0 0.0 9.0
22  1 1 2   0   0  1.585088e+03 -1.672071e+03  6.831697e+01  2.304993e+03 0.0 0.0 9.0
#pdf 21 21 4.327916e-01 2.975777e-01 5000.0 6.900453e-03 3.712824e-02
</event>
<event>
4 6 1.0 5000.0 7.905138e-03 7.739137e-02
21 -1 0 0 101 102  0.000000e+00  0.000000e+00  3.755138e+03  3.755138e+03 0.0 0.0 9.0
21 -1 0 0 103 101  0.000000e+00  0.000000e+00 -1.713841e+03  1.713841e+03 0.0 0.0 9.0
22  1 1 2   0   0 -5.110793e+02 -5.116689e+02  3.641673e+03  3.712787e+03 0.0 0.0 9.0
21  1 1 2 103 102  5.110793e+02  5.116689e+02 -1.600375e+03  1.756191e+03 0.0 0.0 9.0
#pdf 21 21 5.777135e-01 2.636678e-01 5000.0 9.102613e-04 5.627573e-02
</event>
<event>
4 6 1.0 5000.0 7.905138e-03 7.739137e-02
21 -1 0 0 103 101  0.000000e+00  0.000000e+00  3.024336e+03  3.024336e+03 0.0 0.0 9.0
21 -1 0 0 101 102  0.000000e+00  0.000000e+00 -2.411380e+03  2.411380e+03 0.0 0.0 9.0
21  1 1 2 103 102 -9.159149e+02 -1.189221e+03 -1.952855e+03  2.463086e+03 0.0 0.0 9.0
22  1 1 2   0   0  9.159149e+02  1.189221e+03  2.565811e+03  2.972631e+03 0.0 0.0 9.0
#pdf 21 21 4.652825e-01 3.709816e-01 5000.0 4.508602e-03 1.505195e-02
</event>
<event>
4 6 1.0 5000.0 7.905138e-03 7.739137e-02
21 -1 0 0 101 102  0.000000e+00  0.000000e+00  2.905380e+03  2.905380e+03 0.0 0.0 9.0
21 -1 0 0 103 101  0.000000e+00  0.000000e+00 -1.840618e+03  1.840618e+03 0.0 0.0 9.0
22  1 1 2   0   0  1.846883e+03  3.957466e+02  1.901486e+03  2.680157e+03 0.0 0.0 9.0
21  1 1 2 103 102 -1.846883e+03 -3.957466e+02 -8.367248e+02  2.065841e+03 0.0 0.0 9.0
#pdf 21 21 4.469815e-01 2.831721e-01 5000.0 5.735197e-03 4.426141e-02
</event>
<event>
4 6 1.0 5000.0 7.905138e-03 7.739137e-02
21 -1 0 0 103 101  0.000000e+00  0.000000e+00  2.089555e+03  2.089555e+03 0.0 0.0 9.0
21 -1 0 0 101 102  0.000000e+00  0.000000e+00 -2.260776e+03  2.260776e+03 0.0 0.0 9.0
21  1 1 2 103 102 -1.643737e+02  1.748263e+03 -1.367452e+03  2.225616e+03 0.0 0.0 9.0
22  1 1 2   0   0  1.643737e+02 -1.748263e+03  1.196232e+03  2.124715e+03 0.0 0.0 9.0
#pdf 21 21 3.214700e-01 3.478116e-01 5000.0 2.768990e-02 2.005200e-02
</event>
<event>
4 6 1.0 5000.0 7.905138e-03 7.739137e-02
21 -1 0 0 101 102  0.000000e+00  0.000000e+00  2.951780e+03  2.951780e+03 0.0 0.0 9.0
21 -1 0 0 103 101  0.000000e+00  0.000000e+00 -1.999904e+03  1.999904e+03 0.0 0.0 9.0
21  1 1 2 103 102  1.057635e+02 -1.807523e+03 -1.175023e+03  2.158473e+03 0.0 0.0 9.0
22  1 1 2   0   0 -1.057635e+02  1.807523e+03  2.126900e+03  2.793211e+03 0.0 0.0 9.0
#pdf 21 21 4.541201e-01 3.076775e-01 5000.0 5.228605e-03 3.282140e-02
</event>
<event>
4 6 1.0 5000.0 7.905138e-03 7.739137e-02
21 -1 0 0 101 102  0.000000e+00  0.000000e+00  3.092858e+03  3.092858e+03 0.0 0.0 9.0
21 -1 0 0 103 101  0.000000e+00  0.000000e+00 -1.690734e+03  1.690734e+03 0.0 0.0 9.0
21  1 1 2 103 102 -6.245765e+02 -1.423474e+02 -1.594969e+03  1.718803e+03 0.0 0.0 9.0
22  1 1 2   0   0  6.245765e+02  1.423474e+02  2.997093e+03  3.064788e+03 0.0 0.0 9.0
#pdf 21 21 4.758243e-01 2.601129e-01 5000.0 3.917080e-03 5.882477e-02
</event>
<event>
4 6 1.0 5000.0 7.905138e-03 7.739137e-02
21 -1 0 0 103 101  0.000000e+00  0.000000e+00  4.480865e+03  4.480865e+03 0.0 0.0 9.0
21 -1 0 0 101 102  0.000000e+00  0.000000e+00 -1.350302e+03  1.350302e+03 0.0 0.0 9.0
21  1 1 2 103 102  1.371484e+03 -1.977581e+03  9.623783e+02  2.591905e+03 0.0 0.0 9.0
22  1 1 2   0   0 -1.371484e+03  1.977581e+03  2.168185e+03  3.239263e+03 0.0 0.0 9.0
#pdf 21 21 6.893639e-01 2.077388e-01 5000.0 1.336372e-04 1.137343e-01
</event>
<event>
4 6 1.0 5000.0 7.905138e-03 7.739137e-02
21 -1 0 0 103 101  0.000000e+00  0.000000e+00  3.280059e+03  3.280059e+03 0.0 0.0 9.0
21 -1 0 0 101 102  0.000000e+00  0.000000e+00 -1.743849e+03  1.743849e+03 0.0 0.0 9.0
21  1 1 2 103 102  2.248174e+03  2.577166e+02 -4.493289e+01  2.263343e+03 0.0 0.0 9.0
22  1 1 2   0   0 -2.248174e+03 -2.577166e+02  1.581143e+03  2.760565e+03 0.0 0.0 9.0
#pdf 21 21 5.046245e-01 2.682845e-01 5000.0 2.643456e-03 5.315633e-02
</event>
<event>
4 6 1.0 5000.0 7.905138e-03 7.739137e-02
21 -1 0 0 103 101  0.000000e+00  0.000000e+00  1.990446e+03  1.990446e+03 0.0 0.0 9.0
21 -1 0 0 101 102  0.000000e+00  0.000000e+00 -2.439009e+03  2.439009e+03 0.0 0.0 9.0
22  1 1 2   0   0  8.458855e+02  1.640133e+03  9.857487e+02  2.092190e+03 0.0 0.0 9.0
21  1 1 2 103 102 -8.458855e+02 -1.640133e+03 -1.434312e+03  2.337265e+03 0.0 0.0 9.0
#pdf 21 21 3.062225e-01 3.752322e-01 5000.0 3.341124e-02 1.429360e-02
</event>
<event>
4 6 1.0 5000.0 7.905138e-03 7.739137e-02
21 -1 0 0 101 102  0.000000e+00  0.000000e+00  1.993593e+03  1.993593e+03 0.0 0.0 9.0
21 -1 0 0 103 101  0.000000e+00  0.000000e+00 -3.091789e+03  3.091789e+03 0.0 0.0 9.0
22  1 1 2   0   0  1.301976e+03 -2.109334e+03 -4.066857e+02  2.511936e+03 0.0 0.0 9.0
21  1 1 2 103 102 -1.301976e+03  2.109334e+03 -6.915101e+02  2.573445e+03 0.0 0.0 9.0
#pdf 21 21 3.067066e-01 4.756598e-01 5000.0 3.321421e-02 3.925760e-03
</event>
<event>
4 6 1.0 5000.0 7.905138e-03 7.739137e-02
21 -1 0 0 101 102  0.000000e+00  0.000000e+00  2.381979e+03  2.381979e+03 0.0 0.0 9.0
21 -1 0 0 103 101  0.000000e+00  0.000000e+00 -2.461157e+03  2.461157e+03 0.0 0.0 9.0
21  1 1 2 103 102  2.457477e+02 -1.737286e+03  1.629127e+03  2.394287e+03 0.0 0.0 9.0
22  1 1 2   0   0 -2.457477e+02  1.737286e+03 -1.708305e+03  2.448849e+03 0.0 0.0 9.0
#pdf 21 21 3.664583e-01 3.786396e-01 5000.0 1.592853e-02 1.370573e-02
</event>
<event>
4 6 1.0 5000.0 7.905138e-03 7.739137e-02
21 -1 0 0 103 101  0.000000e+00  0.000000e+00  2.529821e+03  2.529821e+03 0.0 0.0 9.0
21 -1 0 0 101 102  0.000000e+00  0.000000e+00 -2.008196e+03  2.008196e+03 0.0 0.0 9.0
21  1 1 2 103 102 -1.976054e+03 -9.706567e+02 -2.255385e+02  2.213105e+03 0.0 0.0 9.0
22  1 1 2   0   0  1.976054e+03  9.706567e+02  7.471638e+02  2.324913e+03 0.0 0.0 9.0
#pdf 21 21 3.892033e-01 3.089532e-01 5000.0 1.200342e-02 3.231042e-02
</event>
<event>
4 6 1.0 5000.0 7.905138e-03 7.739137e-02
21 -1 0 0 103 101  0.000000e+00  0.000000e+00  2.320943e+03  2.320943e+03 0.0 0.0 9.0
21 -1 0 0 101 102  0.000000e+00  0.000000e+00 -2.734260e+03  2.734260e+03 0.0 0.0 9.0
22  1 1 2   0   0 -6.193592e+02  7.034317e+02 -2.552812e+03  2.719425e+03 0.0 0.0 9.0
21  1 1 2 103 102  6.193592e+02 -7.034317e+02  2.139495e+03  2.335779e+03 0.0 0.0 9.0
#pdf 21 21 3.570682e-01 4.206554e-01 5000.0 1.788041e-02 8.062585e-03
</event>
<event>
4 6 1.0 5000.0 7.905138e-03 7.739137e-02
21 -1 0 0 101 102  0.000000e+00  0.000000e+00  3.438331e+03  3.438331e+03 0.0 0.0 9.0
21 -1 0 0 103 101  0.000000e+00  0.000000e+00 -1.707182e+03  1.707182e+03 0.0 0.0 9.0
21  1 1 2 103 102 -1.229218e+03  8.345546e+02 -1.166632e+03  1.889044e+03 0.0 0.0 9.0
22  1 1 2   0   0  1.229218e+03 -8.345546e+02  2.897781e+03  3.256469e+03 0.0 0.0 9.0
#pdf 21 21 5.289740e-01 2.626434e-01 5000.0 1.877372e-03 5.699578e-02
</event>
<event>
4 6 1.0 5000.0 7.905138e-03 7.739137e-02
21 -1 0 0 103 101  0.000000e+00  0.000000e+00  1.943184e+03  1.943184e+03 0.0 0.0 9.0
21 -1 0 0 101 102  0.000000e+00  0.000000e+00 -3.144017e+03  3.144017e+03 0.0 0.0 9.0
21  1 1 2 103 102  1.496007e+03 -1.350624e+02 -2.620438e+03  3.020426e+03 0.0 0.0 9.0
22  1 1 2   0   0 -1.496007e+03  1.350624e+02  1.419606e+03  2.066775e+03 0.0 0.0 9.0
#pdf 21 21 2.989514e-01 4.836949e-01 5000.0 3.649269e-02 3.521256e-03
</event>
<event>
4 6 1.0 5000.0 7.905138e-03 7.739137e-02
21 -1 0 0 103 101  0.000000e+00  0.000000e+00  2.246456e+03  2.246456e+03 0.0 0.0 9.0
21 -1 0 0 101 102  0.000000e+00  0.000000e+00 -2.110705e+03  2.110705e+03 0.0 0.0 9.0
22  1 1 2   0   0  1.137121e+03 -1.569515e+03  1.060923e+03  2.209520e+03 0.0 0.0 9.0
21  1 1 2 103 102 -1.137121e+03  1.569515e+03 -9.251722e+02  2.147642e+03 0.0 0.0 9.0
#pdf 21 21 3.456086e-01 3.247239e-01 5000.0 2.060042e-02 2.660933e-02
</event>
<event>
4 6 1.0 5000.0 7.905138e-03 7.739137e-02
21 -1 0 0 103 101  0.000000e+00  0.000000e+00  3.201564e+03  3.201564e+03 0.0 0.0 9.0
21 -1 0 0 101 102  0.000000e+00  0.000000e+00 -1.904732e+03  1.904732e+03 0.0 0.0 9.0
21  1 1 2 103 102 -1.432679e+03  1.998627e+03  4.148297e+02  2.493825e+03 0.0 0.0 9.0
22  1 1 2   0   0  1.432679e+03 -1.998627e+03  8.820015e+02  2.612471e+03 0.0 0.0 9.0
#pdf 21 21 4.925483e-01 2.930358e-01 5000.0 3.122239e-03 3.926545e-02
</event>
<event>
4 6 1.0 5000.0 7.905138e-03 7.739137e-02
21 -1 0 0 103 101  0.000000e+00  0.000000e+00  1.691907e+03  1.691907e+03 0.0 0.0 9.0
21 -1 0 0 101 102  0.000000e+00  0.000000e+00 -3.385327e+03  3.385327e+03 0.0 0.0 9.0
22  1 1 2   0   0  8.387914e+02  1.157458e+03  1.189350e+03  1.859525e+03 0.0 0.0 9.0
21  1 1 2 103 102 -8.387914e+02 -1.157458e+03 -2.882771e+03  3.217708e+03 0.0 0.0 9.0
#pdf 21 21 2.602933e-01 5.208195e-01 5000.0 5.869206e-02 2.107085e-03
</event>
<event>
4 6 1.0 5000.0 7.905138e-03 7.739137e-02
21 -1 0 0 103 101  0.000000e+00  0.000000e+00  9.641463e+02  9.641463e+02 0.0 0.0 9.0
21 -1 0 0 101 102  0.000000e+00  0.000000e+00 -4.540136e+03  4.540136e+03 0.0 0.0 9.0
22  1 1 2   0   0 -6.598764e+02 -7.181380e+02 -4.222837e+03  4.333995e+03 0.0 0.0 9.0
21  1 1 2 103 102  6.598764e+02  7.181380e+02  6.468479e+02  1.170287e+03 0.0 0.0 9.0
#pdf 21 21 1.483302e-01 6.984824e-01 5000.0 2.549683e-01 1.115625e-04
</event>
<event>
4 6 1.0 5000.0 7.905138e-03 7.739137e-02
21 -1 0 0 103 101  0.000000e+00  0.000000e+00  2.396264e+03  2.396264e+03 0.0 0.0 9.0
21 -1 0 0 101 102  0.000000e+00  0.000000e+00 -2.219824e+03  2.219824e+03 0.0 0.0 9.0
22  1 1 2   0   0  3.996260e+02 -4.663417e+02  2.312931e+03  2.393078e+03 0.0 0.0 9.0
21  1 1 2 103 102 -3.996260e+02  4.663417e+02 -2.136491e+03  2.223009e+03 0.0 0.0 9.0
#pdf 21 21 3.686559e-01 3.415113e-01 5000.0 1.549373e-02 2.165858e-02
</event>
<event>
4 6 1.0 5000.0 7.905138e-03 7.739137e-02
21 -1 0 0 103 101  0.000000e+00  0.000000e+00  2.904436e+03  2.904436e+03 0.0 0.0 9.0
21 -1 0 0 101 102  0.000000e+00  0.000000e+00 -2.283134e+03  2.283134e+03 0.0 0.0 9.0
21  1 1 2 103 102 -4.436512e+01  2.530997e+03  7.866253e+02  2.650791e+03 0.0 0.0 9.0
22  1 1 2   0   0  4.436512e+01 -2.530997e+03 -1.653224e+02  2.536779e+03 0.0 0.0 9.0
#pdf 21 21 4.468364e-01 3.512513e-01 5000.0 5.746032e-03 1.922051e-02
</event>
<event>
4 6 1.0 5000.0 7.905138e-03 7.739137e-02
21 -1 0 0 103 101  0.000000e+00  0.000000e+00  1.490641e+03  1.490641e+03 0.0 0.0 9.0
21 -1 0 0 101 102  0.000000e+00  0.000000e+00 -3.492108e+03  3.492108e+03 0.0 0.0 9.0
21  1 1 2 103 102 -2.000135e+03  1.024815e+03 -5.712542e+02  2.318861e+03 0.0 0.0 9.0
22  1 1 2   0   0  2.000135e+03 -1.024815e+03 -1.430213e+03  2.663887e+03 0.0 0.0 9.0
#pdf 21 21 2.293293e-01 5.372474e-01 5000.0 8.636473e-02 1.665089e-03
</event>
<event>
4 6 1.0 5000.0 7.905138e-03 7.739137e-02
21 -1 0 0 101 102  0.000000e+00  0.000000e+00  1.665414e+03  1.665414e+03 0.0 0.0 9.0
21 -1 0 0 103 101  0.000000e+00  0.000000e+00 -3.801263e+03  3.801263e+03 0.0 0.0 9.0
21  1 1 2 103 102  6.020283e+02 -4.713289e+02  1.536156e+03  1.715915e+03 0.0 0.0 9.0
22  1 1 2   0   0 -6.020283e+02  4.713289e+02 -3.672006e+03  3.750762e+03 0.0 0.0 9.0
#pdf 21 21 2.562175e-01 5.848097e-01 5000.0 6.176871e-02 8.157807e-04
</event>
<event>
4 6 1.0 5000.0 7.905138e-03 7.739137e-02
21 -1 0 0 101 102  0.000000e+00  0.000000e+00  3.302727e+03  3.302727e+03 0.0 0.0 9.0
21 -1 0 0 103 101  0.000000e+00  0.000000e+00 -1.907398e+03  1.907398e+03 0.0 0.0 9.0
21  1 1 2 103 102 -1.052850e+03 -9.313675e+02 -1.460516e+03  2.027078e+03 0.0 0.0 9.0
22  1 1 2   0   0  1.052850e+03  9.313675e+02  2.855845e+03  3.183047e+03 0.0 0.0 9.0
#pdf 21 21 5.081119e-01 2.934458e-01 5000.0 2.518674e-03 3.906958e-02
</event>
<event>
4 6 1.0 5000.0 7.905138e-03 7.739137e-02
21 -1 0 0 101 102  0.000000e+00  0.000000e+00  2.463244e+03  2.463244e+03 0.0 0.0 9.0
21 -1 0 0 103 101  0.000000e+00  0.000000e+00 -1.850286e+03  1.850286e+03 0.0 0.0 9.0
22  1 1 2   0   0 -1.248113e+03  5.499492e+02  1.965716e+03  2.392545e+03 0.0 0.0 9.0
21  1 1 2 103 102  1.248113e+03 -5.499492e+02 -1.352757e+03  1.920985e+03 0.0 0.0 9.0
#pdf 21 21 3.789606e-01 2.846593e-01 5000.0 1.365121e-02 4.346431e-02
</event>
<event>
4 6 1.0 5000.0 7.905138e-03 7.739137e-02
21 -1 0 0 103 101  0.000000e+00  0.000000e+00  2.064105e+03  2.064105e+03 0.0 0.0 9.0
21 -1 0 0 101 102  0.000000e+00  0.000000e+00 -3.496129e+03  3.496129e+03 0.0 0.0 9.0
21  1 1 2 103 102 -8.577821e+02  1.114627e+03 -3.084626e+03  3.390147e+03 0.0 0.0 9.0
22  1 1 2   0   0  8.577821e+02 -1.114627e+03  1.652602e+03  2.170086e+03 0.0 0.0 9.0
#pdf 21 21 3.175546e-01 5.378660e-01 5000.0 2.905132e-02 1.650116e-03
</event>
<event>
4 6 1.0 5000.0 7.905138e-03 7.739137e-02
21 -1 0 0 101 102  0.000000e+00  0.000000e+00  3.844138e+03  3.844138e+03 0.0 0.0 9.0
21 -1 0 0 103 101  0.000000e+00  0.000000e+00 -1.556368e+03  1.556368e+03 0.0 0.0 9.0
21  1 1 2 103 102 -2.300484e+03  4.186599e+02  3.513528e+02  2.364519e+03 0.0 0.0 9.0
22  1 1 2   0   0  2.300484e+03 -4.186599e+02  1.936418e+03  3.035987e+03 0.0 0.0 9.0
#pdf 21 21 5.914059e-01 2.394412e-01 5000.0 7.355149e-04 7.614783e-02
</event>
<event>
4 6 1.0 5000.0 7.905138e-03 7.739137e-02
21 -1 0 0 103 101  0.000000e+00  0.000000e+00  2.791771e+03  2.791771e+03 0.0 0.0 9.0
21 -1 0 0 101 102  0.000000e+00  0.000000e+00 -2.092937e+03  2.092937e+03 0.0 0.0 9.0
21  1 1 2 103 102  3.078080e+02  1.993906e+03 -9.958086e+02  2.249898e+03 0.0 0.0 9.0
22  1 1 2   0   0 -3.078080e+02 -1.993906e+03  1.694643e+03  2.634810e+03 0.0 0.0 9.0
#pdf 21 21 4.295033e-01 3.219903e-01 5000.0 7.196666e-03 2.751413e-02
</event>
<event>
4 6 1.0 5000.0 7.905138e-03 7.739137e-02
21 -1 0 0 101 102  0.000000e+00  0.000000e+00  2.108436e+03  2.108436e+03 0.0 0.0 9.0
21 -1 0 0 103 101  0.000000e+00  0.000000e+00 -3.031126e+03  3.031126e+03 0.0 0.0 9.0
22  1 1 2   0   0  1.058772e+03 -1.278982e+03 -2.399171e+03  2.917673e+03 0.0 0.0 9.0
21  1 1 2 103 102 -1.058772e+03  1.278982e+03  1.476482e+03  2.221889e+03 0.0 0.0 9.0
#pdf 21 21 3.243748e-01 4.663270e-01 5000.0 2.672317e-02 4.446657e-03
</event>
<event>
4 6 1.0 5000.0 7.905138e-03 7.739137e-02
21 -1 0 0 101 102  0.000000e+00  0.000000e+00  2.012915e+03  2.012915e+03 0.0 0.0 9.0
21 -1 0 0 103 101  0.000000e+00  0.000000e+00 -3.091162e+03  3.091162e+03 0.0 0.0 9.0
22  1 1 2   0   0 -2.252378e+03 -1.060087e+03 -3.765363e+02  2.517692e+03 0.0 0.0 9.0
21  1 1 2 103 102  2.252378e+03  1.060087e+03 -7.017116e+02  2.586386e+03 0.0 0.0 9.0
#pdf 21 21 3.096792e-01 4.755635e-01 5000.0 3.202241e-02 3.930848e-03
</event>
<event>
4 6 1.0 5000.0 7.905138e-03 7.739137e-02
21 -1 0 0 101 102  0.000000e+00  0.000000e+00  1.776318e+03  1.776318e+03 0.0 0.0 9.0
21 -1 0 0 103 101  0.000000e+00  0.000000e+00 -2.628572e+03  2.628572e+03 0.0 0.0 9.0
22  1 1 2   0   0 -2.040103e+03 -6.701425e+02 -1.805116e+02  2.154924e+03 0.0 0.0 9.0
21  1 1 2 103 102  2.040103e+03  6.701425e+02 -6.717425e+02  2.249967e+03 0.0 0.0 9.0
#pdf 21 21 2.732797e-01 4.043957e-01 5000.0 4.998908e-02 9.914937e-03
</event>
<event>
4 6 1.0 5000.0 7.905138e-03 7.739137e-02
21 -1 0 0 103 101  0.000000e+00  0.000000e+00  3.248972e+03  3.248972e+03 0.0 0.0 9.0
21 -1 0 0 101 102  0.000000e+00  0.000000e+00 -1.884907e+03  1.884907e+03 0.0 0.0 9.0
21  1 1 2 103 102 -1.226185e+03  8.357260e+02  2.736285e+03  3.112752e+03 0.0 0.0 9.0
22  1 1 2   0   0  1.226185e+03 -8.357260e+02 -1.372220e+03  2.021127e+03 0.0 0.0 9.0
#pdf 21 21 4.998419e-01 2.899856e-01 5000.0 2.824537e-03 4.074633e-02
</event>
<event>
4 6 1.0 5000.0 7.905138e-03 7.739137e-02
21 -1 0 0 101 102  0.000000e+00  0.000000e+00  1.882217e+03  1.882217e+03 0.0 0.0 9.0
21 -1 0 0 103 101  0.000000e+00  0.000000e+00 -3.295640e+03  3.295640e+03 0.0 0.0 9.0
21  1 1 2 103 102 -4.379381e+01 -1.922480e+03  9.385767e+02  2.139807e+03 0.0 0.0 9.0
22  1 1 2   0   0  4.379381e+01  1.922480e+03 -2.352000e+03  3.038050e+03 0.0 0.0 9.0
#pdf 21 21 2.895719e-01 5.070216e-01 5000.0 4.095091e-02 2.557071e-03
</event>
<event>
4 6 1.0 5000.0 7.905138e-03 7.739137e-02
21 -1 0 0 101 102  0.000000e+00  0.000000e+00  3.523716e+03  3.523716e+03 0.0 0.0 9.0
21 -1 0 0 103 101  0.000000e+00  0.000000e+00 -1.938248e+03  1.938248e+03 0.0 0.0 9.0
22  1 1 2   0   0  1.199942e+03  2.149769e+03 -1.233324e+02  2.465072e+03 0.0 0.0 9.0
21  1 1 2 103 102 -1.199942e+03 -2.149769e+03  1.708801e+03  2.996893e+03 0.0 0.0 9.0
#pdf 21 21 5.421102e-01 2.981920e-01 5000.0 1.551745e-03 3.684358e-02
</event>
<event>
4 6 1.0 5000.0 7.905138e-03 7.739137e-02
21 -1 0 0 103 101  0.000000e+00  0.000000e+00  2.480374e+03  2.480374e+03 0.0 0.0 9.0
21 -1 0 0 101 102  0.000000e+00  0.000000e+00 -1.961924e+03  1.961924e+03 0.0 0.0 9.0
22  1 1 2   0   0  1.635759e+03  1.452167e+03 -2.876476e+01  2.187538e+03 0.0 0.0 9.0
21  1 1 2 103 102 -1.635759e+03 -1.452167e+03  5.472146e+02  2.254760e+03 0.0 0.0 9.0
#pdf 21 21 3.815960e-01 3.018345e-01 5000.0 1.320978e-02 3.522808e-02
</event>
<event>
4 6 1.0 5000.0 7.905138e-03 7.739137e-02
21 -1 0 0 103 101  0.000000e+00  0.000000e+00  1.983121e+03  1.983121e+03 0.0 0.0 9.0
21 -1 0 0 101 102  0.000000e+00  0.000000e+00 -2.910077e+03  2.910077e+03 0.0 0.0 9.0
21  1 1 2 103 102  2.355602e+03  2.393508e+02 -4.992619e+01  2.368257e+03 0.0 0.0 9.0
22  1 1 2   0   0 -2.355602e+03 -2.393508e+02 -8.770292e+02  2.524941e+03 0.0 0.0 9.0
#pdf 21 21 3.050956e-01 4.477041e-01 5000.0 3.387277e-02 5.681884e-03
</event>
<event>
4 6 1.0 5000.0 7.905138e-03 7.739137e-02
21 -1 0 0 101 102  0.000000e+00  0.000000e+00  2.667093e+03  2.667093e+03 0.0 0.0 9.0
21 -1 0 0 103 101  0.000000e+00  0.000000e+00 -2.147708e+03  2.147708e+03 0.0 0.0 9.0
21  1 1 2 103 102 -1.993133e+03  1.218311e+02  1.586798e+03  2.550559e+03 0.0 0.0 9.0
22  1 1 2   0   0  1.993133e+03 -1.218311e+02 -1.067412e+03  2.264242e+03 0.0 0.0 9.0
#pdf 21 21 4.103220e-01 3.304165e-01 5000.0 9.195998e-03 2.481933e-02
</event>
<event>
4 6 1.0 5000.0 7.905138e-03 7.739137e-02
21 -1 0 0 101 102  0.000000e+00  0.000000e+00  4.187032e+03  4.187032e+03 0.0 0.0 9.0
21 -1 0 0 103 101  0.000000e+00  0.000000e+00 -1.137019e+03  1.137019e+03 0.0 0.0 9.0
21  1 1 2 103 102  7.389267e+02  1.802769e+03  3.266619e+02  1.975525e+03 0.0 0.0 9.0
22  1 1 2   0   0 -7.389267e+02 -1.802769e+03  2.723351e+03  3.348526e+03 0.0 0.0 9.0
#pdf 21 21 6.441587e-01 1.749260e-01 5000.0 3.069621e-04 1.756198e-01
</event>
<event>
4 6 1.0 5000.0 7.905138e-03 7.739137e-02
21 -1 0 0 101 102  0.000000e+00  0.000000e+00  2.327272e+03  2.327272e+03 0.0 0.0 9.0
21 -1 0 0 103 101  0.000000e+00  0.000000e+00 -2.581289e+03  2.581289e+03 0.0 0.0 9.0
21  1 1 2 103 102  2.109106e+03 -8.626423e+02 -1.030928e+03  2.501058e+03 0.0 0.0 9.0
22  1 1 2   0   0 -2.109106e+03  8.626423e+02  7.769116e+02  2.407503e+03 0.0 0.0 9.0
#pdf 21 21 3.580419e-01 3.971213e-01 5000.0 1.766749e-02 1.086593e-02
</event>
<event>
4 6 1.0 5000.0 7.905138e-03 7.739137e-02
21 -1 0 0 101 102  0.000000e+00  0.000000e+00  1.735909e+03  1.735909e+03 0.0 0.0 9.0
21 -1 0 0 103 101  0.000000e+00  0.000000e+00 -3.413040e+03  3.413040e+03 0.0 0.0 9.0
22  1 1 2   0   0  2.318120e+03 -7.263005e+02 -1.000813e+03  2.627322e+03 0.0 0.0 9.0
21  1 1 2 103 102 -2.318120e+03  7.263005e+02 -6.763177e+02  2.521626e+03 0.0 0.0 9.0
#pdf 21 21 2.670629e-01 5.250830e-01 5000.0 5.396281e-02 1.983920e-03
</event>
<event>
4 6 1.0 5000.0 7.905138e-03 7.739137e-02
21 -1 0 0 101 102  0.000000e+00  0.000000e+00  1.785264e+03  1.785264e+03 0.0 0.0 9.0
21 -1 0 0 103 101  0.000000e+00  0.000000e+00 -3.257879e+03  3.257879e+03 0.0 0.0 9.0
22  1 1 2   0   0  8.275199e+02 -3.805186e+02 -3.071133e+03  3.203349e+03 0.0 0.0 9.0
21  1 1 2 103 102 -8.275199e+02  3.805186e+02  1.598518e+03  1.839794e+03 0.0 0.0 9.0
#pdf 21 21 2.746560e-01 5.012122e-01 5000.0 4.915102e-02 2.771401e-03
</event>
<event>
4 6 1.0 5000.0 7.905138e-03 7.739137e-02
21 -1 0 0 103 101  0.000000e+00  0.000000e+00  2.306702e+03  2.306702e+03 0.0 0.0 9.0
21 -1 0 0 101 102  0.000000e+00  0.000000e+00 -2.843367e+03  2.843367e+03 0.0 0.0 9.0
22  1 1 2   0   0 -1.557504e+03 -2.032962e+03 -2.614692e+02  2.574319e+03 0.0 0.0 9.0
21  1 1 2 103 102  1.557504e+03  2.032962e+03 -2.751964e+02  2.575750e+03 0.0 0.0 9.0
#pdf 21 21 3.548772e-01 4.374411e-01 5000.0 1.837245e-02 6.502038e-03
</event>
<event>
4 6 1.0 5000.0 7.905138e-03 7.739137e-02
21 -1 0 0 101 102  0.000000e+00  0.000000e+00  2.230552e+03  2.230552e+03 0.0 0.0 9.0
21 -1 0 0 103 101  0.000000e+00  0.000000e+00 -2.871541e+03  2.871541e+03 0.0 0.0 9.0
21  1 1 2 103 102 -4.809034e+02 -1.037209e+03  1.955425e+03  2.265117e+03 0.0 0.0 9.0
22  1 1 2   0   0  4.809034e+02  1.037209e+03 -2.596414e+03  2.836976e+03 0.0 0.0 9.0
#pdf 21 21 3.431619e-01 4.417756e-01 5000.0 2.122592e-02 6.146226e-03
</event>
<event>
4 6 1.0 5000.0 7.905138e-03 7.739137e-02
21 -1 0 0 101 102  0.000000e+00  0.000000e+00  1.231734e+03  1.231734e+03 0.0 0.0 9.0
21 -1 0 0 103 101  0.000000e+00  0.000000e+00 -4.651111e+03  4.651111e+03 0.0 0.0 9.0
22  1 1 2   0   0 -2.180850e+02 -2.213269e+03 -2.796989e+03  3.573411e+03 0.0 0.0 9.0
21  1 1 2 103 102  2.180850e+02  2.213269e+03 -6.223877e+02  2.309434e+03 0.0 0.0 9.0
#pdf 21 21 1.894976e-01 7.155555e-01 5000.0 1.444612e-01 7.876121e-05
</event>
<event>
4 6 1.0 5000.0 7.905138e-03 7.739137e-02
21 -1 0 0 103 101  0.000000e+00  0.000000e+00  1.995233e+03  1.995233e+03 0.0 0.0 9.0
21 -1 0 0 101 102  0.000000e+00  0.000000e+00 -3.115004e+03  3.115004e+03 0.0 0.0 9.0
21  1 1 2 103 102 -1.708967e+03 -1.705356e+03  7.717058e+01  2.415525e+03 0.0 0.0 9.0
22  1 1 2   0   0  1.708967e+03  1.705356e+03 -1.196941e+03  2.694712e+03 0.0 0.0 9.0
#pdf 21 21 3.069590e-01 4.792313e-01 5000.0 3.311179e-02 3.741095e-03
</event>
<event>
4 6 1.0 5000.0 7.905138e-03 7.739137e-02
21 -1 0 0 101 102  0.000000e+00  0.000000e+00  2.788132e+03  2.788132e+03 0.0 0.0 9.0
21 -1 0 0 103 101  0.000000e+00  0.000000e+00 -2.029788e+03  2.029788e+03 0.0 0.0 9.0
21  1 1 2 103 102 -9.886054e+02 -7.921801e+02  2.418148e+03  2.729896e+03 0.0 0.0 9.0
22  1 1 2   0   0  9.886054e+02  7.921801e+02 -1.659805e+03  2.088023e+03 0.0 0.0 9.0
#pdf 21 21 4.289433e-01 3.122750e-01 5000.0 7.248539e-03 3.101044e-02
</event>
<event>
4 6 1.0 5000.0 7.905138e-03 7.739137e-02
21 -1 0 0 103 101  0.000000e+00  0.000000e+00  2.848815e+03  2.848815e+03 0.0 0.0 9.0
21 -1 0 0 101 102  0.000000e+00  0.000000e+00 -2.148194e+03  2.148194e+03 0.0 0.0 9.0
22  1 1 2   0   0  9.949478e+02 -1.770600e+03  1.776796e+03  2.698509e+03 0.0 0.0 9.0
21  1 1 2 103 102 -9.949478e+02  1.770600e+03 -1.076176e+03  2.298500e+03 0.0 0.0 9.0
#pdf 21 21 4.382792e-01 3.304914e-01 5000.0 6.432264e-03 2.479658e-02
</event>
<event>
4 6 1.0 5000.0 7.905138e-03 7.739137e-02
21 -1 0 0 103 101  0.000000e+00  0.000000e+00  1.435728e+03  1.435728e+03 0.0 0.0 9.0
21 -1 0 0 101 102  0.000000e+00  0.000000e+00 -3.808319e+03  3.808319e+03 0.0 0.0 9.0
21  1 1 2 103 102 -5.238710e+02  4.206822e+02  1.325159e+03  1.485753e+03 0.0 0.0 9.0
22  1 1 2   0   0  5.238710e+02 -4.206822e+02 -3.697750e+03  3.758294e+03 0.0 0.0 9.0
#pdf 21 21 2.208812e-01 5.858952e-01 5000.0 9.618450e-02 8.021150e-04
</event>
<event>
4 6 1.0 5000.0 7.905138e-03 7.739137e-02
21 -1 0 0 101 102  0.000000e+00  0.000000e+00  2.773622e+03  2.773622e+03 0.0 0.0 9.0
21 -1 0 0 103 101  0.000000e+00  0.000000e+00 -1.996718e+03  1.996718e+03 0.0 0.0 9.0
21  1 1 2 103 102 -2.218574e+03 -6.312852e+02 -8.428201e+01  2.308180e+03 0.0 0.0 9.0
22  1 1 2   0   0  2.218574e+03  6.312852e+02  8.611869e+02  2.462160e+03 0.0 0.0 9.0
#pdf 21 21 4.267111e-01 3.071873e-01 5000.0 7.459933e-03 3.301931e-02
</event>
<event>
4 6 1.0 5000.0 7.905138e-03 7.739137e-02
21 -1 0 0 101 102  0.000000e+00  0.000000e+00  1.605430e+03  1.605430e+03 0.0 0.0 9.0
21 -1 0 0 103 101  0.000000e+00  0.000000e+00 -3.970657e+03  3.970657e+03 0.0 0.0 9.0
21  1 1 2 103 102  1.956161e+03 -4.159820e+02 -2.884399e+03  3.509896e+03 0.0 0.0 9.0
22  1 1 2   0   0 -1.956161e+03  4.159820e+02  5.191723e+02  2.066192e+03 0.0 0.0 9.0
#pdf 21 21 2.469893e-01 6.108703e-01 5000.0 6.923380e-02 5.384706e-04
</event>
<event>
4 6 1.0 5000.0 7.905138e-03 7.739137e-02
21 -1 0 0 103 101  0.000000e+00  0.000000e+00  2.430390e+03  2.430390e+03 0.0 0.0 9.0
21 -1 0 0 101 102  0.000000e+00  0.000000e+00 -2.305387e+03  2.305387e+03 0.0 0.0 9.0
22  1 1 2   0   0  2.122523e+03 -7.345963e+02  8.099270e+02  2.387618e+03 0.0 0.0 9.0
21  1 1 2 103 102 -2.122523e+03  7.345963e+02 -6.849239e+02  2.348160e+03 0.0 0.0 9.0
#pdf 21 21 3.739062e-01 3.546750e-01 5000.0 1.452662e-02 1.841885e-02
</event>
<event>
4 6 1.0 5000.0 7.905138e-03 7.739137e-02
21 -1 0 0 103 101  0.000000e+00  0.000000e+00  2.291973e+03  2.291973e+03 0.0 0.0 9.0
21 -1 0 0 101 102  0.000000e+00  0.000000e+00 -2.277071e+03  2.277071e+03 0.0 0.0 9.0
21  1 1 2 103 102  1.024404e+03 -2.025558e+03 -2.508134e+02  2.283680e+03 0.0 0.0 9.0
22  1 1 2   0   0 -1.024404e+03  2.025558e+03  2.657154e+02  2.285365e+03 0.0 0.0 9.0
#pdf 21 21 3.526113e-01 3.503187e-01 5000.0 1.889918e-02 1.944321e-02
</event>
<event>
4 6 1.0 5000.0 7.905138e-03 7.739137e-02
21 -1 0 0 103 101  0.000000e+00  0.000000e+00  2.475342e+03  2.475342e+03 0.0 0.0 9.0
21 -1 0 0 101 102  0.000000e+00  0.000000e+00 -1.874898e+03  1.874898e+03 0.0 0.0 9.0
21  1 1 2 103 102 -1.171931e+03 -3.883134e+02 -1.482286e+03  1.929088e+03 0.0 0.0 9.0
22  1 1 2   0   0  1.171931e+03  3.883134e+02  2.082730e+03  2.421151e+03 0.0 0.0 9.0
#pdf 21 21 3.808218e-01 2.884458e-01 5000.0 1.333830e-02 4.151271e-02
</event>
<event>
4 6 1.0 5000.0 7.905138e-03 7.739137e-02
21 -1 0 0 101 102  0.000000e+00  0.000000e+00  2.322743e+03  2.322743e+03 0.0 0.0 9.0
21 -1 0 0 103 101  0.000000e+00  0.000000e+00 -2.079972e+03  2.079972e+03 0.0 0.0 9.0
21  1 1 2 103 102 -1.816298e+03  1.119172e+03  6.511095e+02  2.230567e+03 0.0 0.0 9.0
22  1 1 2   0   0  1.816298e+03 -1.119172e+03 -4.083376e+02  2.172148e+03 0.0 0.0 9.0
#pdf 21 21 3.573451e-01 3.199956e-01 5000.0 1.781951e-02 2.819440e-02
</event>
<event>
4 6 1.0 5000.0 7.905138e-03 7.739137e-02
21 -1 0 0 101 102  0.000000e+00  0.000000e+00  2.287733e+03  2.287733e+03 0.0 0.0 9.0
21 -1 0 0 103 101  0.000000e+00  0.000000e+00 -2.534595e+03  2.534595e+03 0.0 0.0 9.0
21  1 1 2 103 102 -1.206752e+03 -5.678509e+02  1.884138e+03  2.308394e+03 0.0 0.0 9.0
22  1 1 2   0   0  1.206752e+03  5.678509e+02 -2.130999e+03  2.513934e+03 0.0 0.0 9.0
#pdf 21 21 3.519590e-01 3.899377e-01 5000.0 1.905282e-02 1.189284e-02
</event>
<event>
4 6 1.0 5000.0 7.905138e-03 7.739137e-02
21 -1 0 0 101 102  0.000000e+00  0.000000e+00  2.001169e+03  2.001169e+03 0.0 0.0 9.0
21 -1 0 0 103 101  0.000000e+00  0.000000e+00 -3.316197e+03  3.316197e+03 0.0 0.0 9.0
22  1 1 2   0   0  2.175268e+03  8.051754e+02  4.992086e+02  2.372616e+03 0.0 0.0 9.0
21  1 1 2 103 102 -2.175268e+03 -8.051754e+02 -1.814237e+03  2.944750e+03 0.0 0.0 9.0
#pdf 21 21 3.078722e-01 5.101842e-01 5000.0 3.274305e-02 2.447161e-03
</event>
<event>
4 6 1.0 5000.0 7.905138e-03 7.739137e-02
21 -1 0 0 101 102  0.000000e+00  0.000000e+00  2.897931e+03  2.897931e+03 0.0 0.0 9.0
21 -1 0 0 103 101  0.000000e+00  0.000000e+00 -2.580118e+03  2.580118e+03 0.0 0.0 9.0
21  1 1 2 103 102 -4.063586e+02  5.458964e+02  2.811747e+03  2.892931e+03 0.0 0.0 9.0
22  1 1 2   0   0  4.063586e+02 -5.458964e+02 -2.493933e+03  2.585118e+03 0.0 0.0 9.0
#pdf 21 21 4.458356e-01 3.969412e-01 5000.0 5.822139e-03 1.089054e-02
</event>
<event>
4 6 1.0 5000.0 7.905138e-03 7.739137e-02
21 -1 0 0 103 101  0.000000e+00  0.000000e+00  1.754980e+03  1.754980e+03 0.0 0.0 9.0
21 -1 0 0 101 102  0.000000e+00  0.000000e+00 -2.728477e+03  2.728477e+03 0.0 0.0 9.0
22  1 1 2   0   0  3.658175e+02  8.420946e+02 -2.521618e+03  2.683561e+03 0.0 0.0 9.0
21  1 1 2 103 102 -3.658175e+02 -8.420946e+02  1.548120e+03  1.799895e+03 0.0 0.0 9.0
#pdf 21 21 2.699969e-01 4.197657e-01 5000.0 5.204750e-02 8.154629e-03
</event>
<event>
4 6 1.0 5000.0 7.905138e-03 7.739137e-02
21 -1 0 0 103 101  0.000000e+00  0.000000e+00  2.162303e+03  2.162303e+03 0.0 0.0 9.0
21 -1 0 0 101 102  0.000000e+00  0.000000e+00 -2.907272e+03  2.907272e+03 0.0 0.0 9.0
22  1 1 2   0   0 -9.677580e+02 -1.660630e+02 -2.704808e+03  2.877520e+03 0.0 0.0 9.0
21  1 1 2 103 102  9.677580e+02  1.660630e+02  1.959840e+03  2.192055e+03 0.0 0.0 9.0
#pdf 21 21 3.326620e-01 4.472725e-01 5000.0 2.414540e-02 5.713599e-03
</event>
<event>
4 6 1.0 5000.0 7.905138e-03 7.739137e-02
21 -1 0 0 103 101  0.000000e+00  0.000000e+00  2.119738e+03  2.119738e+03 0.0 0.0 9.0
21 -1 0 0 101 102  0.000000e+00  0.000000e+00 -2.310697e+03  2.310697e+03 0.0 0.0 9.0
21  1 1 2 103 102 -1.057568e+03 -1.719499e+03  8.125291e+02  2.176081e+03 0.0 0.0 9.0
22  1 1 2   0   0  1.057568e+03  1.719499e+03 -1.003487e+03  2.254354e+03 0.0 0.0 9.0
#pdf 21 21 3.261136e-01 3.554918e-01 5000.0 2.616099e-02 1.823249e-02
</event>
<event>
4 6 1.0 5000.0 7.905138e-03 7.739137e-02
21 -1 0 0 101 102  0.000000e+00  0.000000e+00  3.232472e+03  3.232472e+03 0.0 0.0 9.0
21 -1 0 0 103 101  0.000000e+00  0.000000e+00 -1.996792e+03  1.996792e+03 0.0 0.0 9.0
21  1 1 2 103 102  9.162366e+02 -1.877306e+03 -8.702659e+02  2.262991e+03 0.0 0.0 9.0
22  1 1 2   0   0 -9.162366e+02  1.877306e+03  2.105946e+03  2.966273e+03 0.0 0.0 9.0
#pdf 21 21 4.973034e-01 3.071988e-01 5000.0 2.925389e-03 3.301468e-02
</event>
<event>
4 6 1.0 5000.0 7.905138e-03 7.739137e-02
21 -1 0 0 101 102  0.000000e+00  0.000000e+00  2.213293e+03  2.213293e+03 0.0 0.0 9.0
21 -1 0 0 103 101  0.000000e+00  0.000000e+00 -2.812361e+03  2.812361e+03 0.0 0.0 9.0
22  1 1 2   0   0 -2.922855e+02 -2.477037e+03 -2.404619e+02  2.505786e+03 0.0 0.0 9.0
21  1 1 2 103 102  2.922855e+02  2.477037e+03 -3.586060e+02  2.519869e+03 0.0 0.0 9.0
#pdf 21 21 3.405067e-01 4.326710e-01 5000.0 2.192645e-02 6.911088e-03
</event>
<event>
4 6 1.0 5000.0 7.905138e-03 7.739137e-02
21 -1 0 0 101 102  0.000000e+00  0.000000e+00  1.939055e+03  1.939055e+03 0.0 0.0 9.0
21 -1 0 0 103 101  0.000000e+00  0.000000e+00 -3.312763e+03  3.312763e+03 0.0 0.0 9.0
21  1 1 2 103 102  1.815138e+03 -1.732048e+03 -3.148564e+02  2.528606e+03 0.0 0.0 9.0
22  1 1 2   0   0 -1.815138e+03  1.732048e+03 -1.058851e+03  2.723212e+03 0.0 0.0 9.0
#pdf 21 21 2.983162e-01 5.096558e-01 5000.0 3.678612e-02 2.465217e-03
</event>
<event>
4 6 1.0 5000.0 7.905138e-03 7.739137e-02
21 -1 0 0 101 102  0.000000e+00  0.000000e+00  3.180568e+03  3.180568e+03 0.0 0.0 9.0
21 -1 0 0 103 101  0.000000e+00  0.000000e+00 -1.479624e+03  1.479624e+03 0.0 0.0 9.0
21  1 1 2 103 102  8.018219e+02 -9.564555e+02 -1.055363e+03  1.634477e+03 0.0 0.0 9.0
22  1 1 2   0   0 -8.018219e+02  9.564555e+02  2.756307e+03  3.025715e+03 0.0 0.0 9.0
#pdf 21 21 4.893182e-01 2.276345e-01 5000.0 3.262530e-03 8.823368e-02
</event>
<event>
4 6 1.0 5000.0 7.905138e-03 7.739137e-02
21 -1 0 0 101 102  0.000000e+00  0.000000e+00  2.634990e+03  2.634990e+03 0.0 0.0 9.0
21 -1 0 0 103 101  0.000000e+00  0.000000e+00 -2.383836e+03  2.383836e+03 0.0 0.0 9.0
22  1 1 2   0   0 -1.808332e+03  1.479986e+03 -7.816267e+02  2.464014e+03 0.0 0.0 9.0
21  1 1 2 103 102  1.808332e+03 -1.479986e+03  1.032781e+03  2.554812e+03 0.0 0.0 9.0
#pdf 21 21 4.053831e-01 3.667440e-01 5000.0 9.791888e-03 1.587155e-02
</event>
<event>
4 6 1.0 5000.0 7.905138e-03 7.739137e-02
21 -1 0 0 103 101  0.000000e+00  0.000000e+00  1.956948e+03  1.956948e+03 0.0 0.0 9.0
21 -1 0 0 101 102  0.000000e+00  0.000000e+00 -3.213676e+03  3.213676e+03 0.0 0.0 9.0
22  1 1 2   0   0 -1.631328e+03 -2.353128e+02 -2.576871e+03  3.058900e+03 0.0 0.0 9.0
21  1 1 2 103 102  1.631328e+03  2.353128e+02  1.320143e+03  2.111724e+03 0.0 0.0 9.0
#pdf 21 21 3.010689e-01 4.944117e-01 5000.0 3.554984e-02 3.043795e-03
</event>
<event>
4 6 1.0 5000.0 7.905138e-03 7.739137e-02
21 -1 0 0 101 102  0.000000e+00  0.000000e+00  3.149247e+03  3.149247e+03 0.0 0.0 9.0
21 -1 0 0 103 101  0.000000e+00  0.000000e+00 -1.914224e+03  1.914224e+03 0.0 0.0 9.0
22  1 1 2   0   0 -1.341703e+03  1.417539e+03 -9.184334e+02  2.157105e+03 0.0 0.0 9.0
21  1 1 2 103 102  1.341703e+03 -1.417539e+03  2.153457e+03  2.906365e+03 0.0 0.0 9.0
#pdf 21 21 4.844996e-01 2.944959e-01 5000.0 3.483020e-03 3.857097e-02
</event>
<event>
4 6 1.0 5000.0 7.905138e-03 7.739137e-02
21 -1 0 0 101 102  0.000000e+00  0.000000e+00  3.537641e+03  3.537641e+03 0.0 0.0 9.0
21 -1 0 0 103 101  0.000000e+00  0.000000e+00 -1.743128e+03  1.743128e+03 0.0 0.0 9.0
22  1 1 2   0   0 -4.489615e+02 -1.314938e+03 -1.291111e+03  1.896733e+03 0.0 0.0 9.0
21  1 1 2 103 102  4.489615e+02  1.314938e+03  3.085624e+03  3.384037e+03 0.0 0.0 9.0
#pdf 21 21 5.442525e-01 2.681736e-01 5000.0 1.504355e-03 5.322899e-02
</event>
<event>
4 6 1.0 5000.0 7.905138e-03 7.739137e-02
21 -1 0 0 103 101  0.000000e+00  0.000000e+00  1.504331e+03  1.504331e+03 0.0 0.0 9.0
21 -1 0 0 101 102  0.000000e+00  0.000000e+00 -3.858337e+03  3.858337e+03 0.0 0.0 9.0
22  1 1 2   0   0 -9.765608e+02  1.947539e+02 -3.618576e+03  3.753091e+03 0.0 0.0 9.0
21  1 1 2 103 102  9.765608e+02 -1.947539e+02  1.264571e+03  1.609577e+03 0.0 0.0 9.0
#pdf 21 21 2.314356e-01 5.935903e-01 5000.0 8.411626e-02 7.105180e-04
</event>
<event>
4 6 1.0 5000.0 7.905138e-03 7.739137e-02
21 -1 0 0 101 102  0.000000e+00  0.000000e+00  2.021940e+03  2.021940e+03 0.0 0.0 9.0
21 -1 0 0 103 101  0.000000e+00  0.000000e+00 -3.145024e+03  3.145024e+03 0.0 0.0 9.0
21  1 1 2 103 102 -2.147145e+03  1.198239e+03 -1.134747e+03  2.708073e+03 0.0 0.0 9.0
22  1 1 2   0   0  2.147145e+03 -1.198239e+03  1.166327e+01  2.458891e+03 0.0 0.0 9.0
#pdf 21 21 3.110677e-01 4.838499e-01 5000.0 3.147749e-02 3.513858e-03
</event>
<event>
4 6 1.0 5000.0 7.905138e-03 7.739137e-02
21 -1 0 0 101 102  0.000000e+00  0.000000e+00  1.793756e+03  1.793756e+03 0.0 0.0 9.0
21 -1 0 0 103 101  0.000000e+00  0.000000e+00 -3.669882e+03  3.669882e+03 0.0 0.0 9.0
21  1 1 2 103 102 -1.006473e+03 -1.458204e+03  1.037750e+03  2.053356e+03 0.0 0.0 9.0
22  1 1 2   0   0  1.006473e+03  1.458204e+03 -2.913876e+03  3.410281e+03 0.0 0.0 9.0
#pdf 21 21 2.759624e-01 5.645972e-01 5000.0 4.836842e-02 1.113361e-03
</event>
<event>
4 6 1.0 5000.0 7.905138e-03 7.739137e-02
21 -1 0 0 103 101  0.000000e+00  0.000000e+00  2.072878e+03  2.072878e+03 0.0 0.0 9.0
21 -1 0 0 101 102  0.000000e+00  0.000000e+00 -2.853697e+03  2.853697e+03 0.0 0.0 9.0
21  1 1 2 103 102 -1.847140e+03 -7.905274e+02  9.977207e+02  2.243281e+03 0.0 0.0 9.0
22  1 1 2   0   0  1.847140e+03  7.905274e+02 -1.778541e+03  2.683294e+03 0.0 0.0 9.0
#pdf 21 21 3.189042e-01 4.390304e-01 5000.0 2.857411e-02 6.370159e-03
</event>
<event>
4 6 1.0 5000.0 7.905138e-03 7.739137e-02
21 -1 0 0 103 101  0.000000e+00  0.000000e+00  1.871014e+03  1.871014e+03 0.0 0.0 9.0
21 -1 0 0 101 102  0.000000e+00  0.000000e+00 -3.273228e+03  3.273228e+03 0.0 0.0 9.0
22  1 1 2   0   0  1.713965e+03 -1.436226e+03 -1.802941e+03  2.872458e+03 0.0 0.0 9.0
21  1 1 2 103 102 -1.713965e+03  1.436226e+03  4.007269e+02  2.271784e+03 0.0 0.0 9.0
#pdf 21 21 2.878483e-01 5.035735e-01 5000.0 4.181399e-02 2.682218e-03
</event>
<event>
4 6 1.0 5000.0 7.905138e-03 7.739137e-02
21 -1 0 0 101 102  0.000000e+00  0.000000e+00  2.446237e+03  2.446237e+03 0.0 0.0 9.0
21 -1 0 0 103 101  0.000000e+00  0.000000e+00 -2.402138e+03  2.402138e+03 0.0 0.0 9.0
22  1 1 2   0   0  3.864123e+01 -2.370088e+03  5.294065e+02  2.428802e+03 0.0 0.0 9.0
21  1 1 2 103 102 -3.864123e+01  2.370088e+03 -4.853074e+02  2.419573e+03 0.0 0.0 9.0
#pdf 21 21 3.763442e-01 3.695597e-01 5000.0 1.409996e-02 1.531945e-02
</event>
<event>
4 6 1.0 5000.0 7.905138e-03 7.739137e-02
21 -1 0 0 103 101  0.000000e+00  0.000000e+00  2.529565e+03  2.529565e+03 0.0 0.0 9.0
21 -1 0 0 101 102  0.000000e+00  0.000000e+00 -2.372718e+03  2.372718e+03 0.0 0.0 9.0
21  1 1 2 103 102 -1.909003e+03  1.522445e+03 -1.212118e+02  2.444754e+03 0.0 0.0 9.0
22  1 1 2   0   0  1.909003e+03 -1.522445e+03  2.780589e+02  2.457528e+03 0.0 0.0 9.0
#pdf 21 21 3.891638e-01 3.650335e-01 5000.0 1.200940e-02 1.621394e-02
</event>
<event>
4 6 1.0 5000.0 7.905138e-03 7.739137e-02
21 -1 0 0 103 101  0.000000e+00  0.000000e+00  1.619068e+03  1.619068e+03 0.0 0.0 9.0
21 -1 0 0 101 102  0.000000e+00  0.000000e+00 -3.703763e+03  3.703763e+03 0.0 0.0 9.0
22  1 1 2   0   0 -5.843156e+02 -2.021796e+03 -2.403073e+03  3.194346e+03 0.0 0.0 9.0
21  1 1 2 103 102  5.843156e+02  2.021796e+03  3.183782e+02  2.128485e+03 0.0 0.0 9.0
#pdf 21 21 2.490874e-01 5.698097e-01 5000.0 6.748830e-02 1.027878e-03
</event>
<event>
4 6 1.0 5000.0 7.905138e-03 7.739137e-02
21 -1 0 0 103 101  0.000000e+00  0.000000e+00  1.689753e+03  1.689753e+03 0.0 0.0 9.0
21 -1 0 0 101 102  0.000000e+00  0.000000e+00 -3.996082e+03  3.996082e+03 0.0 0.0 9.0
22  1 1 2   0   0 -2.029007e+03  4.281698e+02 -2.866383e+03  3.537846e+03 0.0 0.0 9.0
21  1 1 2 103 102  2.029007e+03 -4.281698e+02  5.600539e+02  2.147990e+03 0.0 0.0 9.0
#pdf 21 21 2.599620e-01 6.147819e-01 5000.0 5.893598e-02 5.050321e-04
</event>
<event>
4 6 1.0 5000.0 7.905138e-03 7.739137e-02
21 -1 0 0 103 101  0.000000e+00  0.000000e+00  2.230181e+03  2.230181e+03 0.0 0.0 9.0
21 -1 0 0 101 102  0.000000e+00  0.000000e+00 -2.557445e+03  2.557445e+03 0.0 0.0 9.0
22  1 1 2   0   0 -1.751805e+02 -6.092220e+02  2.144314e+03  2.236051e+03 0.0 0.0 9.0
21  1 1 2 103 102  1.751805e+02  6.092220e+02 -2.471578e+03  2.551575e+03 0.0 0.0 9.0
#pdf 21 21 3.431048e-01 3.934530e-01 5000.0 2.124074e-02 1.137840e-02
</event>
<event>
4 6 1.0 5000.0 7.905138e-03 7.739137e-02
21 -1 0 0 101 102  0.000000e+00  0.000000e+00  2.328913e+03  2.328913e+03 0.0 0.0 9.0
21 -1 0 0 103 101  0.000000e+00  0.000000e+00 -2.503941e+03  2.503941e+03 0.0 0.0 9.0
21  1 1 2 103 102 -5.111214e+02 -5.973122e+02  2.197279e+03  2.333680e+03 0.0 0.0 9.0
22  1 1 2   0   0  5.111214e+02  5.973122e+02 -2.372308e+03  2.499174e+03 0.0 0.0 9.0
#pdf 21 21 3.582942e-01 3.852217e-01 5000.0 1.761282e-02 1.262149e-02
</event>
<event>
4 6 1.0 5000.0 7.905138e-03 7.739137e-02
21 -1 0 0 103 101  0.000000e+00  0.000000e+00  3.094517e+03  3.094517e+03 0.0 0.0 9.0
21 -1 0 0 101 102  0.000000e+00  0.000000e+00 -2.421490e+03  2.421490e+03 0.0 0.0 9.0
21  1 1 2 103 102  1.647161e+03 -2.064445e+03 -3.888155e+02  2.669504e+03 0.0 0.0 9.0
22  1 1 2   0   0 -1.647161e+03  2.064445e+03  1.061842e+03  2.846503e+03 0.0 0.0 9.0
#pdf 21 21 4.760795e-01 3.725369e-01 5000.0 3.903652e-03 1.476955e-02
</event>
<event>
4 6 1.0 5000.0 7.905138e-03 7.739137e-02
21 -1 0 0 101 102  0.000000e+00  0.000000e+00  1.830670e+03  1.830670e+03 0.0 0.0 9.0
21 -1 0 0 103 101  0.000000e+00  0.000000e+00 -2.777791e+03  2.777791e+03 0.0 0.0 9.0
22  1 1 2   0   0  1.879916e+03 -4.869189e+02 -1.644883e+03  2.544959e+03 0.0 0.0 9.0
21  1 1 2 103 102 -1.879916e+03  4.869189e+02  6.977627e+02  2.063503e+03 0.0 0.0 9.0
#pdf 21 21 2.816416e-01 4.273525e-01 5000.0 4.510238e-02 7.398418e-03
</event>
<event>
4 6 1.0 5000.0 7.905138e-03 7.739137e-02
21 -1 0 0 103 101  0.000000e+00  0.000000e+00  1.416751e+03  1.416751e+03 0.0 0.0 9.0
21 -1 0 0 101 102  0.000000e+00  0.000000e+00 -4.221265e+03  4.221265e+03 0.0 0.0 9.0
21  1 1 2 103 102 -1.595168e+03 -1.018199e+03  3.832454e+02  1.930847e+03 0.0 0.0 9.0
22  1 1 2   0   0  1.595168e+03  1.018199e+03 -3.187760e+03  3.707170e+03 0.0 0.0 9.0
#pdf 21 21 2.179616e-01 6.494255e-01 5000.0 9.985008e-02 2.798073e-04
</event>
<event>
4 6 1.0 5000.0 7.905138e-03 7.739137e-02
21 -1 0 0 103 101  0.000000e+00  0.000000e+00  2.708893e+03  2.708893e+03 0.0 0.0 9.0
21 -1 0 0 101 102  0.000000e+00  0.000000e+00 -2.210982e+03  2.210982e+03 0.0 0.0 9.0
21  1 1 2 103 102 -1.852838e+02 -1.221316e+03  2.372527e+03  2.674851e+03 0.0 0.0 9.0
22  1 1 2   0   0  1.852838e+02  1.221316e+03 -1.874617e+03  2.245023e+03 0.0 0.0 9.0
#pdf 21 21 4.167527e-01 3.401511e-01 5000.0 8.473641e-03 2.202211e-02
</event>
<event>
4 6 1.0 5000.0 7.905138e-03 7.739137e-02
21 -1 0 0 101 102  0.000000e+00  0.000000e+00  2.131725e+03  2.131725e+03 0.0 0.0 9.0
21 -1 0 0 103 101  0.000000e+00  0.000000e+00 -2.869050e+03  2.869050e+03 0.0 0.0 9.0
21  1 1 2 103 102  1.051122e+03 -1.604339e+03 -1.947087e+03  2.733114e+03 0.0 0.0 9.0
22  1 1 2   0   0 -1.051122e+03  1.604339e+03  1.209762e+03  2.267661e+03 0.0 0.0 9.0
#pdf 21 21 3.279577e-01 4.413923e-01 5000.0 2.557761e-02 6.177240e-03
</event>
<event>
4 6 1.0 5000.0 7.905138e-03 7.739137e-02
21 -1 0 0 101 102  0.000000e+00  0.000000e+00  1.766440e+03  1.766440e+03 0.0 0.0 9.0
21 -1 0 0 103 101  0.000000e+00  0.000000e+00 -2.490185e+03  2.490185e+03 0.0 0.0 9.0
22  1 1 2   0   0 -8.820480e+02  1.444568e+03  8.949666e+02  1.914615e+03 0.0 0.0 9.0
21  1 1 2 103 102  8.820480e+02 -1.444568e+03 -1.618711e+03  2.342010e+03 0.0 0.0 9.0
#pdf 21 21 2.717600e-01 3.831054e-01 5000.0 5.093129e-02 1.296208e-02
</event>
<event>
4 6 1.0 5000.0 7.905138e-03 7.739137e-02
21 -1 0 0 103 101  0.000000e+00  0.000000e+00  3.373990e+03  3.373990e+03 0.0 0.0 9.0
21 -1 0 0 101 102  0.000000e+00  0.000000e+00 -1.910377e+03  1.910377e+03 0.0 0.0 9.0
21  1 1 2 103 102  1.977899e+03  7.048681e+02  2.217029e+03  3.053546e+03 0.0 0.0 9.0
22  1 1 2   0   0 -1.977899e+03 -7.048681e+02 -7.534165e+02  2.230821e+03 0.0 0.0 9.0
#pdf 21 21 5.190753e-01 2.939041e-01 5000.0 2.159711e-03 3.885145e-02
</event>
<event>
4 6 1.0 5000.0 7.905138e-03 7.739137e-02
21 -1 0 0 101 102  0.000000e+00  0.000000e+00  2.201078e+03  2.201078e+03 0.0 0.0 9.0
21 -1 0 0 103 101  0.000000e+00  0.000000e+00 -2.506369e+03  2.506369e+03 0.0 0.0 9.0
22  1 1 2   0   0 -1.833008e+03  1.445651e+03 -4.118178e+02  2.370531e+03 0.0 0.0 9.0
21  1 1 2 103 102  1.833008e+03 -1.445651e+03  1.065270e+02  2.336915e+03 0.0 0.0 9.0
#pdf 21 21 3.386274e-01 3.855952e-01 5000.0 2.243727e-02 1.256223e-02
</event>
<event>
4 6 1.0 5000.0 7.905138e-03 7.739137e-02
21 -1 0 0 101 102  0.000000e+00  0.000000e+00  2.547017e+03  2.547017e+03 0.0 0.0 9.0
21 -1 0 0 103 101  0.000000e+00  0.000000e+00 -2.534511e+03  2.534511e+03 0.0 0.0 9.0
21  1 1 2 103 102 -1.117256e+03  8.805165e+02  2.111460e+03  2.545945e+03 0.0 0.0 9.0
22  1 1 2   0   0  1.117256e+03 -8.805165e+02 -2.098954e+03  2.535583e+03 0.0 0.0 9.0
#pdf 21 21 3.918487e-01 3.899248e-01 5000.0 1.161022e-02 1.189478e-02
</event>
<event>
4 6 1.0 5000.0 7.905138e-03 7.739137e-02
21 -1 0 0 101 102  0.000000e+00  0.000000e+00  1.697694e+03  1.697694e+03 0.0 0.0 9.0
21 -1 0 0 103 101  0.000000e+00  0.000000e+00 -3.634933e+03  3.634933e+03 0.0 0.0 9.0
22  1 1 2   0   0  3.938725e+00 -1.002153e+03 -3.408334e+03  3.552614e+03 0.0 0.0 9.0
21  1 1 2 103 102 -3.938725e+00  1.002153e+03  1.471095e+03  1.780013e+03 0.0 0.0 9.0
#pdf 21 21 2.611837e-01 5.592204e-01 5000.0 5.804229e-02 1.207235e-03
</event>
<event>
4 6 1.0 5000.0 7.905138e-03 7.739137e-02
21 -1 0 0 101 102  0.000000e+00  0.000000e+00  3.310507e+03  3.310507e+03 0.0 0.0 9.0
21 -1 0 0 103 101  0.000000e+00  0.000000e+00 -1.852734e+03  1.852734e+03 0.0 0.0 9.0
22  1 1 2   0   0  1.919891e+03  1.419368e+03  1.414745e+03  2.775263e+03 0.0 0.0 9.0
21  1 1 2 103 102 -1.919891e+03 -1.419368e+03  4.302889e+01  2.387977e+03 0.0 0.0 9.0
#pdf 21 21 5.093088e-01 2.850359e-01 5000.0 2.477141e-03 4.326540e-02
</event>
<event>
4 6 1.0 5000.0 7.905138e-03 7.739137e-02
21 -1 0 0 101 102  0.000000e+00  0.000000e+00  1.703409e+03  1.703409e+03 0.0 0.0 9.0
21 -1 0 0 103 101  0.000000e+00  0.000000e+00 -2.713766e+03  2.713766e+03 0.0 0.0 9.0
21  1 1 2 103 102  6.710131e+02 -1.307735e+03  1.106702e+03  1.839896e+03 0.0 0.0 9.0
22  1 1 2   0   0 -6.710131e+02  1.307735e+03 -2.117058e+03  2.577279e+03 0.0 0.0 9.0
#pdf 21 21 2.620630e-01 4.175024e-01 5000.0 5.740906e-02 8.393175e-03
</event>
<event>
4 6 1.0 5000.0 7.905138e-03 7.739137e-02
21 -1 0 0 103 101  0.000000e+00  0.000000e+00  2.944056e+03  2.944056e+03 0.0 0.0 9.0
21 -1 0 0 101 102  0.000000e+00  0.000000e+00 -1.941744e+03  1.941744e+03 0.0 0.0 9.0
22  1 1 2   0   0  2.130952e+03  5.127185e+02 -4.749941e+02  2.242645e+03 0.0 0.0 9.0
21  1 1 2 103 102 -2.130952e+03 -5.127185e+02  1.477306e+03  2.643155e+03 0.0 0.0 9.0
#pdf 21 21 4.529317e-01 2.987298e-01 5000.0 5.310981e-03 3.659496e-02
</event>
<event>
4 6 1.0 5000.0 7.905138e-03 7.739137e-02
21 -1 0 0 101 102  0.000000e+00  0.000000e+00  1.287257e+03  1.287257e+03 0.0 0.0 9.0
21 -1 0 0 103 101  0.000000e+00  0.000000e+00 -3.459038e+03  3.459038e+03 0.0 0.0 9.0
21  1 1 2 103 102 -1.365974e+02  1.593472e+03  4.622221e+02  1.664771e+03 0.0 0.0 9.0
22  1 1 2   0   0  1.365974e+02 -1.593472e+03 -2.634003e+03  3.081523e+03 0.0 0.0 9.0
#pdf 21 21 1.980395e-01 5.321596e-01 5000.0 1.290627e-01 1.793575e-03
</event>
<event>
4 6 1.0 5000.0 7.905138e-03 7.739137e-02
21 -1 0 0 101 102  0.000000e+00  0.000000e+00  2.179991e+03  2.179991e+03 0.0 0.0 9.0
21 -1 0 0 103 101  0.000000e+00  0.000000e+00 -2.211778e+03  2.211778e+03 0.0 0.0 9.0
22  1 1 2   0   0 -5.449054e+02  2.091482e+03  3.719817e+02  2.193077e+03 0.0 0.0 9.0
21  1 1 2 103 102  5.449054e+02 -2.091482e+03 -4.037689e+02  2.198692e+03 0.0 0.0 9.0
#pdf 21 21 3.353833e-01 3.402736e-01 5000.0 2.335103e-02 2.198910e-02
</event>
<event>
4 6 1.0 5000.0 7.905138e-03 7.739137e-02
21 -1 0 0 101 102  0.000000e+00  0.000000e+00  2.646288e+03  2.646288e+03 0.0 0.0 9.0
21 -1 0 0 103 101  0.000000e+00  0.000000e+00 -2.557517e+03  2.557517e+03 0.0 0.0 9.0
21  1 1 2 103 102  8.509336e+02 -1.967642e+03 -1.429675e+03  2.576757e+03 0.0 0.0 9.0
22  1 1 2   0   0 -8.509336e+02  1.967642e+03  1.518447e+03  2.627049e+03 0.0 0.0 9.0
#pdf 21 21 4.071213e-01 3.934642e-01 5000.0 9.578460e-03 1.137681e-02
</event>
<event>
4 6 1.0 5000.0 7.905138e-03 7.739137e-02
21 -1 0 0 101 102  0.000000e+00  0.000000e+00  2.987111e+03  2.987111e+03 0.0 0.0 9.0
21 -1 0 0 103 101  0.000000e+00  0.000000e+00 -1.951254e+03  1.951254e+03 0.0 0.0 9.0
21  1 1 2 103 102  1.542216e+03 -1.855937e+03  5.950170e+02  2.485353e+03 0.0 0.0 9.0
22  1 1 2   0   0 -1.542216e+03  1.855937e+03  4.408394e+02  2.453013e+03 0.0 0.0 9.0
#pdf 21 21 4.595555e-01 3.001930e-01 5000.0 4.864236e-03 3.592464e-02
</event>
<event>
4 6 1.0 5000.0 7.905138e-03 7.739137e-02
21 -1 0 0 103 101  0.000000e+00  0.000000e+00  2.200831e+03  2.200831e+03 0.0 0.0 9.0
21 -1 0 0 101 102  0.000000e+00  0.000000e+00 -2.250601e+03  2.250601e+03 0.0 0.0 9.0
21  1 1 2 103 102 -2.244309e+02  1.322494e+03  1.751129e+03  2.205859e+03 0.0 0.0 9.0
22  1 1 2   0   0  2.244309e+02 -1.322494e+03 -1.800899e+03  2.245573e+03 0.0 0.0 9.0
#pdf 21 21 3.385894e-01 3.462463e-01 5000.0 2.244773e-02 2.044030e-02
</event>
<event>
4 6 1.0 5000.0 7.905138e-03 7.739137e-02
21 -1 0 0 101 102  0.000000e+00  0.000000e+00  1.721121e+03  1.721121e+03 0.0 0.0 9.0
21 -1 0 0 103 101  0.000000e+00  0.000000e+00 -3.413397e+03  3.413397e+03 0.0 0.0 9.0
21  1 1 2 103 102 -8.420415e+02  1.336015e+03  1.101404e+03  1.925373e+03 0.0 0.0 9.0
22  1 1 2   0   0  8.420415e+02 -1.336015e+03 -2.793680e+03  3.209146e+03 0.0 0.0 9.0
#pdf 21 21 2.647879e-01 5.251381e-01 5000.0 5.550068e-02 1.982376e-03
</event>
<event>
4 6 1.0 5000.0 7.905138e-03 7.739137e-02
21 -1 0 0 101 102  0.000000e+00  0.000000e+00  2.378890e+03  2.378890e+03 0.0 0.0 9.0
21 -1 0 0 103 101  0.000000e+00  0.000000e+00 -2.766061e+03  2.766061e+03 0.0 0.0 9.0
21  1 1 2 103 102  3.431733e+02 -2.242179e+03  1.007745e+03  2.482072e+03 0.0 0.0 9.0
22  1 1 2   0   0 -3.431733e+02  2.242179e+03 -1.394916e+03  2.662878e+03 0.0 0.0 9.0
#pdf 21 21 3.659831e-01 4.255478e-01 5000.0 1.602348e-02 7.572664e-03
</event>
<event>
4 6 1.0 5000.0 7.905138e-03 7.739137e-02
21 -1 0 0 101 102  0.000000e+00  0.000000e+00  2.583567e+03  2.583567e+03 0.0 0.0 9.0
21 -1 0 0 103 101  0.000000e+00  0.000000e+00 -2.434041e+03  2.434041e+03 0.0 0.0 9.0
21  1 1 2 103 102  9.076429e+02  2.086440e+03  1.129491e+03  2.540235e+03 0.0 0.0 9.0
22  1 1 2   0   0 -9.076429e+02 -2.086440e+03 -9.799640e+02  2.477373e+03 0.0 0.0 9.0
#pdf 21 21 3.974719e-01 3.744678e-01 5000.0 1.081817e-02 1.442765e-02
</event>
<event>
4 6 1.0 5000.0 7.905138e-03 7.739137e-02
21 -1 0 0 103 101  0.000000e+00  0.000000e+00  2.428729e+03  2.428729e+03 0.0 0.0 9.0
21 -1 0 0 101 102  0.000000e+00  0.000000e+00 -2.454867e+03  2.454867e+03 0.0 0.0 9.0
22  1 1 2   0   0 -2.130059e+03  8.061849e+01 -1.204117e+03  2.448173e+03 0.0 0.0 9.0
21  1 1 2 103 102  2.130059e+03 -8.061849e+01  1.177979e+03  2.435423e+03 0.0 0.0 9.0
#pdf 21 21 3.736506e-01 3.776718e-01 5000.0 1.457179e-02 1.387100e-02
</event>
<event>
4 6 1.0 5000.0 7.905138e-03 7.739137e-02
21 -1 0 0 101 102  0.000000e+00  0.000000e+00  2.068342e+03  2.068342e+03 0.0 0.0 9.0
21 -1 0 0 103 101  0.000000e+00  0.000000e+00 -2.868054e+03  2.868054e+03 0.0 0.0 9.0
21  1 1 2 103 102  1.536360e+03  1.581803e+03  6.482093e+02  2.298408e+03 0.0 0.0 9.0
22  1 1 2   0   0 -1.536360e+03 -1.581803e+03 -1.447922e+03  2.637988e+03 0.0 0.0 9.0
#pdf 21 21 3.182065e-01 4.412391e-01 5000.0 2.881974e-02 6.189652e-03
</event>
<event>
4 6 1.0 5000.0 7.905138e-03 7.739137e-02
21 -1 0 0 103 101  0.000000e+00  0.000000e+00  3.380425e+03  3.380425e+03 0.0 0.0 9.0
21 -1 0 0 101 102  0.000000e+00  0.000000e+00 -1.847178e+03  1.847178e+03 0.0 0.0 9.0
22  1 1 2   0   0 -4.815237e+02 -6.196799e+02  3.248180e+03  3.341638e+03 0.0 0.0 9.0
21  1 1 2 103 102  4.815237e+02  6.196799e+02 -1.714933e+03  1.885965e+03 0.0 0.0 9.0
#pdf 21 21 5.200654e-01 2.841812e-01 5000.0 2.129667e-03 4.371851e-02
</event>
<event>
4 6 1.0 5000.0 7.905138e-03 7.739137e-02
21 -1 0 0 101 102  0.000000e+00  0.000000e+00  2.045737e+03  2.045737e+03 0.0 0.0 9.0
21 -1 0 0 103 101  0.000000e+00  0.000000e+00 -2.693638e+03  2.693638e+03 0.0 0.0 9.0
21  1 1 2 103 102  2.035771e+01 -9.081998e+02  1.861103e+03  2.070977e+03 0.0 0.0 9.0
22  1 1 2   0   0 -2.035771e+01  9.081998e+02 -2.509005e+03  2.668398e+03 0.0 0.0 9.0
#pdf 21 21 3.147288e-01 4.144059e-01 5000.0 3.008219e-02 8.730406e-03
</event>
<event>
4 6 1.0 5000.0 7.905138e-03 7.739137e-02
21 -1 0 0 101 102  0.000000e+00  0.000000e+00  3.373840e+03  3.373840e+03 0.0 0.0 9.0
21 -1 0 0 103 101  0.000000e+00  0.000000e+00 -1.863437e+03  1.863437e+03 0.0 0.0 9.0
21  1 1 2 103 102  2.182045e+03  8.805877e+02  1.659766e+03  2.879510e+03 0.0 0.0 9.0
22  1 1 2   0   0 -2.182045e+03 -8.805877e+02 -1.493621e+02  2.357767e+03 0.0 0.0 9.0
#pdf 21 21 5.190524e-01 2.866826e-01 5000.0 2.160413e-03 4.240866e-02
</event>
<event>
4 6 1.0 5000.0 7.905138e-03 7.739137e-02
21 -1 0 0 103 101  0.000000e+00  0.000000e+00  1.711559e+03  1.711559e+03 0.0 0.0 9.0
21 -1 0 0 101 102  0.000000e+00  0.000000e+00 -3.432878e+03  3.432878e+03 0.0 0.0 9.0
22  1 1 2   0   0 -1.150383e+03  3.797743e+02 -3.088591e+03  3.317680e+03 0.0 0.0 9.0
21  1 1 2 103 102  1.150383e+03 -3.797743e+02  1.367272e+03  1.826757e+03 0.0 0.0 9.0
#pdf 21 21 2.633168e-01 5.281351e-01 5000.0 5.652108e-02 1.899924e-03
</event>
<event>
4 6 1.0 5000.0 7.905138e-03 7.739137e-02
21 -1 0 0 101 102  0.000000e+00  0.000000e+00  2.309335e+03  2.309335e+03 0.0 0.0 9.0
21 -1 0 0 103 101  0.000000e+00  0.000000e+00 -2.756004e+03  2.756004e+03 0.0 0.0 9.0
22  1 1 2   0   0  2.055070e+02 -4.685758e+02 -2.703368e+03  2.751363e+03 0.0 0.0 9.0
21  1 1 2 103 102 -2.055070e+02  4.685758e+02  2.256699e+03  2.313976e+03 0.0 0.0 9.0
#pdf 21 21 3.552823e-01 4.240006e-01 5000.0 1.828002e-02 7.724751e-03
</event>
<event>
4 6 1.0 5000.0 7.905138e-03 7.739137e-02
21 -1 0 0 103 101  0.000000e+00  0.000000e+00  2.582460e+03  2.582460e+03 0.0 0.0 9.0
21 -1 0 0 101 102  0.000000e+00  0.000000e+00 -2.365188e+03  2.365188e+03 0.0 0.0 9.0
21  1 1 2 103 102 -3.826431e+02  1.510007e+03  2.029203e+03  2.558164e+03 0.0 0.0 9.0
22  1 1 2   0   0  3.826431e+02 -1.510007e+03 -1.811932e+03  2.389484e+03 0.0 0.0 9.0
#pdf 21 21 3.973015e-01 3.638751e-01 5000.0 1.084136e-02 1.644785e-02
</event>
<event>
4 6 1.0 5000.0 7.905138e-03 7.739137e-02
21 -1 0 0 103 101  0.000000e+00  0.000000e+00  2.721829e+03  2.721829e+03 0.0 0.0 9.0
21 -1 0 0 101 102  0.000000e+00  0.000000e+00 -2.148867e+03  2.148867e+03 0.0 0.0 9.0
21  1 1 2 103 102  6.986973e+02 -2.272234e+03  7.341363e+02  2.488008e+03 0.0 0.0 9.0
22  1 1 2   0   0 -6.986973e+02  2.272234e+03 -1.611744e+02  2.382688e+03 0.0 0.0 9.0
#pdf 21 21 4.187429e-01 3.305949e-01 5000.0 8.261633e-03 2.476516e-02
</event>
<event>
4 6 1.0 5000.0 7.905138e-03 7.739137e-02
21 -1 0 0 101 102  0.000000e+00  0.000000e+00  2.423910e+03  2.423910e+03 0.0 0.0 9.0
21 -1 0 0 103 101  0.000000e+00  0.000000e+00 -2.241155e+03  2.241155e+03 0.0 0.0 9.0
22  1 1 2   0   0 -2.036180e+03  4.631502e+02 -9.447069e+02  2.291944e+03 0.0 0.0 9.0
21  1 1 2 103 102  2.036180e+03 -4.631502e+02  1.127462e+03  2.373122e+03 0.0 0.0 9.0
#pdf 21 21 3.729093e-01 3.447931e-01 5000.0 1.470326e-02 2.080689e-02
</event>
<event>
4 6 1.0 5000.0 7.905138e-03 7.739137e-02
21 -1 0 0 101 102  0.000000e+00  0.000000e+00  3.027891e+03  3.027891e+03 0.0 0.0 9.0
21 -1 0 0 103 101  0.000000e+00  0.000000e+00 -2.161329e+03  2.161329e+03 0.0 0.0 9.0
21  1 1 2 103 102 -5.556592e+02  1.460740e+03  2.487403e+03  2.937634e+03 0.0 0.0 9.0
22  1 1 2   0   0  5.556592e+02 -1.460740e+03 -1.620841e+03  2.251587e+03 0.0 0.0 9.0
#pdf 21 21 4.658294e-01 3.325122e-01 5000.0 4.476073e-03 2.418985e-02
</event>
<event>
4 6 1.0 5000.0 7.905138e-03 7.739137e-02
21 -1 0 0 103 101  0.000000e+00  0.000000e+00  1.791804e+03  1.791804e+03 0.0 0.0 9.0
21 -1 0 0 101 102  0.000000e+00  0.000000e+00 -3.044718e+03  3.044718e+03 0.0 0.0 9.0
21  1 1 2 103 102  1.482771e+03 -5.087070e+02 -2.419171e+03  2.882669e+03 0.0 0.0 9.0
22  1 1 2   0   0 -1.482771e+03  5.087070e+02  1.166256e+03  1.953854e+03 0.0 0.0 9.0
#pdf 21 21 2.756622e-01 4.684182e-01 5000.0 4.854719e-02 4.324908e-03
</event>
<event>
4 6 1.0 5000.0 7.905138e-03 7.739137e-02
21 -1 0 0 103 101  0.000000e+00  0.000000e+00  1.451129e+03  1.451129e+03 0.0 0.0 9.0
21 -1 0 0 101 102  0.000000e+00  0.000000e+00 -4.019430e+03  4.019430e+03 0.0 0.0 9.0
22  1 1 2   0   0 -1.902927e+03 -1.450827e+03 -1.654067e+03  2.908947e+03 0.0 0.0 9.0
21  1 1 2 103 102  1.902927e+03  1.450827e+03 -9.142343e+02  2.561612e+03 0.0 0.0 9.0
#pdf 21 21 2.232506e-01 6.183739e-01 5000.0 9.331004e-02 4.760454e-04
</event>
<event>
4 6 1.0 5000.0 7.905138e-03 7.739137e-02
21 -1 0 0 101 102  0.000000e+00  0.000000e+00  1.767709e+03  1.767709e+03 0.0 0.0 9.0
21 -1 0 0 103 101  0.000000e+00  0.000000e+00 -3.138411e+03  3.138411e+03 0.0 0.0 9.0
22  1 1 2   0   0  1.248256e+03  1.290703e+03  9.022514e+02  2.009506e+03 0.0 0.0 9.0
21  1 1 2 103 102 -1.248256e+03 -1.290703e+03 -2.272953e+03  2.896614e+03 0.0 0.0 9.0
#pdf 21 21 2.719552e-01 4.828325e-01 5000.0 5.080924e-02 3.562716e-03
</event>
<event>
4 6 1.0 5000.0 7.905138e-03 7.739137e-02
21 -1 0 0 103 101  0.000000e+00  0.000000e+00  2.239308e+03  2.239308e+03 0.0 0.0 9.0
21 -1 0 0 101 102  0.000000e+00  0.000000e+00 -2.422923e+03  2.422923e+03 0.0 0.0 9.0
21  1 1 2 103 102 -1.559268e+03  1.596231e+03 -7.604595e+02  2.357450e+03 0.0 0.0 9.0
22  1 1 2   0   0  1.559268e+03 -1.596231e+03  5.768437e+02  2.304782e+03 0.0 0.0 9.0
#pdf 21 21 3.445089e-01 3.727575e-01 5000.0 2.087932e-02 1.473027e-02
</event>
<event>
4 6 1.0 5000.0 7.905138e-03 7.739137e-02
21 -1 0 0 103 101  0.000000e+00  0.000000e+00  2.498142e+03  2.498142e+03 0.0 0.0 9.0
21 -1 0 0 101 102  0.000000e+00  0.000000e+00 -2.486519e+03  2.486519e+03 0.0 0.0 9.0
22  1 1 2   0   0  6.087666e+02  8.224013e+02 -2.266800e+03  2.487031e+03 0.0 0.0 9.0
21  1 1 2 103 102 -6.087666e+02 -8.224013e+02  2.278424e+03  2.497630e+03 0.0 0.0 9.0
#pdf 21 21 3.843296e-01 3.825413e-01 5000.0 1.276409e-02 1.305419e-02
</event>
<event>
4 6 1.0 5000.0 7.905138e-03 7.739137e-02
21 -1 0 0 103 101  0.000000e+00  0.000000e+00  2.403327e+03  2.403327e+03 0.0 0.0 9.0
21 -1 0 0 101 102  0.000000e+00  0.000000e+00 -2.601076e+03  2.601076e+03 0.0 0.0 9.0
22  1 1 2   0   0  1.028119e+03 -4.864572e+02  2.129425e+03  2.414150e+03 0.0 0.0 9.0
21  1 1 2 103 102 -1.028119e+03  4.864572e+02 -2.327175e+03  2.590253e+03 0.0 0.0 9.0
#pdf 21 21 3.697425e-01 4.001656e-01 5000.0 1.528458e-02 1.045798e-02
</event>
<event>
4 6 1.0 5000.0 7.905138e-03 7.739137e-02
21 -1 0 0 103 101  0.000000e+00  0.000000e+00  1.972761e+03  1.972761e+03 0.0 0.0 9.0
21 -1 0 0 101 102  0.000000e+00  0.000000e+00 -3.064982e+03  3.064982e+03 0.0 0.0 9.0
22  1 1 2   0   0  1.867786e+03  1.348489e+03 -1.426963e+03  2.709847e+03 0.0 0.0 9.0
21  1 1 2 103 102 -1.867786e+03 -1.348489e+03  3.347430e+02  2.327896e+03 0.0 0.0 9.0
#pdf 21 21 3.035018e-01 4.715356e-01 5000.0 3.453180e-02 4.148893e-03
</event>
<event>
4 6 1.0 5000.0 7.905138e-03 7.739137e-02
21 -1 0 0 103 101  0.000000e+00  0.000000e+00  1.222434e+03  1.222434e+03 0.0 0.0 9.0
21 -1 0 0 101 102  0.000000e+00  0.000000e+00 -3.669151e+03  3.669151e+03 0.0 0.0 9.0
22  1 1 2   0   0  1.312193e+03  1.551827e+03 -1.911705e+03  2.790096e+03 0.0 0.0 9.0
21  1 1 2 103 102 -1.312193e+03 -1.551827e+03 -5.350120e+02  2.101489e+03 0.0 0.0 9.0
#pdf 21 21 1.880667e-01 5.644848e-01 5000.0 1.472731e-01 1.115267e-03
</event>
<event>
4 6 1.0 5000.0 7.905138e-03 7.739137e-02
21 -1 0 0 103 101  0.000000e+00  0.000000e+00  2.896352e+03  2.896352e+03 0.0 0.0 9.0
21 -1 0 0 101 102  0.000000e+00  0.000000e+00 -2.092890e+03  2.092890e+03 0.0 0.0 9.0
22  1 1 2   0   0 -8.664597e+02  1.067629e+03  2.471083e+03  2.827867e+03 0.0 0.0 9.0
21  1 1 2 103 102  8.664597e+02 -1.067629e+03 -1.667621e+03  2.161375e+03 0.0 0.0 9.0
#pdf 21 21 4.455927e-01 3.219831e-01 5000.0 5.841013e-03 2.751655e-02
</event>
<event>
4 6 1.0 5000.0 7.905138e-03 7.739137e-02
21 -1 0 0 101 102  0.000000e+00  0.000000e+00  2.350795e+03  2.350795e+03 0.0 0.0 9.0
21 -1 0 0 103 101  0.000000e+00  0.000000e+00 -2.640559e+03  2.640559e+03 0.0 0.0 9.0
21  1 1 2 103 102  4.587993e+02  2.420848e+03  2.250858e+02  2.474200e+03 0.0 0.0 9.0
22  1 1 2   0   0 -4.587993e+02 -2.420848e+03 -5.148500e+02  2.517155e+03 0.0 0.0 9.0
#pdf 21 21 3.616608e-01 4.062399e-01 5000.0 1.690134e-02 9.686179e-03
</event>
<event>
4 6 1.0 5000.0 7.905138e-03 7.739137e-02
21 -1 0 0 103 101  0.000000e+00  0.000000e+00  2.209247e+03  2.209247e+03 0.0 0.0 9.0
21 -1 0 0 101 102  0.000000e+00  0.000000e+00 -2.194036e+03  2.194036e+03 0.0 0.0 9.0
22  1 1 2   0   0 -5.623700e+02  1.225544e+03 -1.732793e+03  2.195629e+03 0.0 0.0 9.0
21  1 1 2 103 102  5.623700e+02 -1.225544e+03  1.748004e+03  2.207654e+03 0.0 0.0 9.0
#pdf 21 21 3.398842e-01 3.375440e-01 5000.0 2.209420e-02 2.273782e-02
</event>
<event>
4 6 1.0 5000.0 7.905138e-03 7.739137e-02
21 -1 0 0 103 101  0.000000e+00  0.000000e+00  1.548479e+03  1.548479e+03 0.0 0.0 9.0
21 -1 0 0 101 102  0.000000e+00  0.000000e+00 -3.616515e+03  3.616515e+03 0.0 0.0 9.0
22  1 1 2   0   0  2.193474e+03 -7.617797e+02 -1.532275e+03  2.781997e+03 0.0 0.0 9.0
21  1 1 2 103 102 -2.193474e+03  7.617797e+02 -5.357611e+02  2.382998e+03 0.0 0.0 9.0
#pdf 21 21 2.382275e-01 5.563870e-01 5000.0 7.730952e-02 1.258667e-03
</event>
<event>
4 6 1.0 5000.0 7.905138e-03 7.739137e-02
21 -1 0 0 101 102  0.000000e+00  0.000000e+00  1.970309e+03  1.970309e+03 0.0 0.0 9.0
21 -1 0 0 103 101  0.000000e+00  0.000000e+00 -2.383087e+03  2.383087e+03 0.0 0.0 9.0
21  1 1 2 103 102 -2.026638e+02 -1.711021e+03  1.113617e+03  2.051538e+03 0.0 0.0 9.0
22  1 1 2   0   0  2.026638e+02  1.711021e+03 -1.526395e+03  2.301857e+03 0.0 0.0 9.0
#pdf 21 21 3.031244e-01 3.666287e-01 5000.0 3.468880e-02 1.589453e-02
</event>
<event>
4 6 1.0 5000.0 7.905138e-03 7.739137e-02
21 -1 0 0 101 102  0.000000e+00  0.000000e+00  1.223871e+03  1.223871e+03 0.0 0.0 9.0
21 -1 0 0 103 101  0.000000e+00  0.000000e+00 -4.549085e+03  4.549085e+03 0.0 0.0 9.0
22  1 1 2   0   0 -1.609984e+03  1.475585e+03 -2.755470e+03  3.515965e+03 0.0 0.0 9.0
21  1 1 2 103 102  1.609984e+03 -1.475585e+03 -5.697448e+02  2.256991e+03 0.0 0.0 9.0
#pdf 21 21 1.882878e-01 6.998593e-01 5000.0 1.468354e-01 1.085044e-04
</event>
<event>
4 6 1.0 5000.0 7.905138e-03 7.739137e-02
21 -1 0 0 101 102  0.000000e+00  0.000000e+00  3.512899e+03  3.512899e+03 0.0 0.0 9.0
21 -1 0 0 103 101  0.000000e+00  0.000000e+00 -1.737852e+03  1.737852e+03 0.0 0.0 9.0
21  1 1 2 103 102 -1.845068e+03 -4.497016e+02 -7.919858e+02  2.057608e+03 0.0 0.0 9.0
22  1 1 2   0   0  1.845068e+03  4.497016e+02  2.567033e+03  3.193143e+03 0.0 0.0 9.0
#pdf 21 21 5.404460e-01 2.673619e-01 5000.0 1.589499e-03 5.376420e-02
</event>
<event>
4 6 1.0 5000.0 7.905138e-03 7.739137e-02
21 -1 0 0 103 101  0.000000e+00  0.000000e+00  3.592815e+03  3.592815e+03 0.0 0.0 9.0
21 -1 0 0 101 102  0.000000e+00  0.000000e+00 -1.548788e+03  1.548788e+03 0.0 0.0 9.0
21  1 1 2 103 102  1.937338e+03  1.025439e+03  1.971912e+03  2.948430e+03 0.0 0.0 9.0
22  1 1 2   0   0 -1.937338e+03 -1.025439e+03  7.211560e+01  2.193173e+03 0.0 0.0 9.0
#pdf 21 21 5.527408e-01 2.382750e-01 5000.0 1.326850e-03 7.726378e-02
</event>
<event>
4 6 1.0 5000.0 7.905138e-03 7.739137e-02
21 -1 0 0 101 102  0.000000e+00  0.000000e+00  1.674780e+03  1.674780e+03 0.0 0.0 9.0
21 -1 0 0 103 101  0.000000e+00  0.000000e+00 -3.670764e+03  3.670764e+03 0.0 0.0 9.0
21  1 1 2 103 102 -3.869437e+02 -2.446131e+03 -8.684616e+02  2.624406e+03 0.0 0.0 9.0
22  1 1 2   0   0  3.869437e+02  2.446131e+03 -1.127523e+03  2.721138e+03 0.0 0.0 9.0
#pdf 21 21 2.576585e-01 5.647329e-01 5000.0 6.066268e-02 1.111061e-03
</event>
<event>
4 6 1.0 5000.0 7.905138e-03 7.739137e-02
21 -1 0 0 103 101  0.000000e+00  0.000000e+00  2.012583e+03  2.012583e+03 0.0 0.0 9.0
21 -1 0 0 101 102  0.000000e+00  0.000000e+00 -2.308374e+03  2.308374e+03 0.0 0.0 9.0
21  1 1 2 103 102  5.275053e+02 -8.515617e+02  1.765093e+03  2.029525e+03 0.0 0.0 9.0
22  1 1 2   0   0 -5.275053e+02  8.515617e+02 -2.060884e+03  2.291432e+03 0.0 0.0 9.0
#pdf 21 21 3.096281e-01 3.551344e-01 5000.0 3.204259e-02 1.831368e-02
</event>
<event>
4 6 1.0 5000.0 7.905138e-03 7.739137e-02
21 -1 0 0 101 102  0.000000e+00  0.000000e+00  1.579805e+03  1.579805e+03 0.0 0.0 9.0
21 -1 0 0 103 101  0.000000e+00  0.000000e+00 -3.979786e+03  3.979786e+03 0.0 0.0 9.0
22  1 1 2   0   0 -7.091108e+02 -1.994981e+03  2.892318e+02  2.136924e+03 0.0 0.0 9.0
21  1 1 2 103 102  7.091108e+02  1.994981e+03 -2.689213e+03  3.422668e+03 0.0 0.0 9.0
#pdf 21 21 2.430469e-01 6.122748e-01 5000.0 7.276250e-02 5.262255e-04
</event>
<event>
4 6 1.0 5000.0 7.905138e-03 7.739137e-02
21 -1 0 0 103 101  0.000000e+00  0.000000e+00  1.978942e+03  1.978942e+03 0.0 0.0 9.0
21 -1 0 0 101 102  0.000000e+00  0.000000e+00 -2.798620e+03  2.798620e+03 0.0 0.0 9.0
21  1 1 2 103 102  1.210462e+03 -1.950456e+03 -9.361128e+02  2.479073e+03 0.0 0.0 9.0
22  1 1 2   0   0 -1.210462e+03  1.950456e+03  1.164344e+02  2.298489e+03 0.0 0.0 9.0
#pdf 21 21 3.044526e-01 4.305569e-01 5000.0 3.413781e-02 7.100243e-03
</event>
<event>
4 6 1.0 5000.0 7.905138e-03 7.739137e-02
21 -1 0 0 103 101  0.000000e+00  0.000000e+00  1.638244e+03  1.638244e+03 0.0 0.0 9.0
21 -1 0 0 101 102  0.000000e+00  0.000000e+00 -3.553577e+03  3.553577e+03 0.0 0.0 9.0
22  1 1 2   0   0 -8.662223e+02 -2.051899e+03  4.065013e+01  2.227618e+03 0.0 0.0 9.0
21  1 1 2 103 102  8.662223e+02  2.051899e+03 -1.955983e+03  2.964203e+03 0.0 0.0 9.0
#pdf 21 21 2.520376e-01 5.467042e-01 5000.0 6.507705e-02 1.451345e-03
</event>
<event>
4 6 1.0 5000.0 7.905138e-03 7.739137e-02
21 -1 0 0 101 102  0.000000e+00  0.000000e+00  3.355396e+03  3.355396e+03 0.0 0.0 9.0
21 -1 0 0 103 101  0.000000e+00  0.000000e+00 -1.804618e+03  1.804618e+03 0.0 0.0 9.0
22  1 1 2   0   0  1.208742e+03 -1.420830e+03 -9.071992e+02  2.074326e+03 0.0 0.0 9.0
21  1 1 2 103 102 -1.208742e+03  1.420830e+03  2.457977e+03  3.085688e+03 0.0 0.0 9.0
#pdf 21 21 5.162148e-01 2.776335e-01 5000.0 2.248979e-03 4.738505e-02
</event>
<event>
4 6 1.0 5000.0 7.905138e-03 7.739137e-02
21 -1 0 0 101 102  0.000000e+00  0.000000e+00  3.692212e+03  3.692212e+03 0.0 0.0 9.0
21 -1 0 0 103 101  0.000000e+00  0.000000e+00 -1.669502e+03  1.669502e+03 0.0 0.0 9.0
21  1 1 2 103 102 -1.780646e+03 -7.667139e+02  2.686102e+03  3.312657e+03 0.0 0.0 9.0
22  1 1 2   0   0  1.780646e+03  7.667139e+02 -6.633915e+02  2.049058e+03 0.0 0.0 9.0
#pdf 21 21 5.680327e-01 2.568465e-01 5000.0 1.056348e-03 6.128353e-02
</event>
<event>
4 6 1.0 5000.0 7.905138e-03 7.739137e-02
21 -1 0 0 103 101  0.000000e+00  0.000000e+00  2.272526e+03  2.272526e+03 0.0 0.0 9.0
21 -1 0 0 101 102  0.000000e+00  0.000000e+00 -2.712781e+03  2.712781e+03 0.0 0.0 9.0
21  1 1 2 103 102  1.760878e+03 -1.690489e+03 -6.762444e+02  2.532933e+03 0.0 0.0 9.0
22  1 1 2   0   0 -1.760878e+03  1.690489e+03  2.359893e+02  2.452374e+03 0.0 0.0 9.0
#pdf 21 21 3.496194e-01 4.173509e-01 5000.0 1.961149e-02 8.409378e-03
</event>
<event>
4 6 1.0 5000.0 7.905138e-03 7.739137e-02
21 -1 0 0 101 102  0.000000e+00  0.000000e+00  1.610115e+03  1.610115e+03 0.0 0.0 9.0
21 -1 0 0 103 101  0.000000e+00  0.000000e+00 -3.337337e+03  3.337337e+03 0.0 0.0 9.0
21  1 1 2 103 102 -1.565266e+03 -1.709617e+03 -8.364919e+02  2.464258e+03 0.0 0.0 9.0
22  1 1 2   0   0  1.565266e+03  1.709617e+03 -8.907298e+02  2.483193e+03 0.0 0.0 9.0
#pdf 21 21 2.477100e-01 5.134364e-01 5000.0 6.863171e-02 2.338548e-03
</event>
<event>
4 6 1.0 5000.0 7.905138e-03 7.739137e-02
21 -1 0 0 101 102  0.000000e+00  0.000000e+00  2.360878e+03  2.360878e+03 0.0 0.0 9.0
21 -1 0 0 103 101  0.000000e+00  0.000000e+00 -2.522797e+03  2.522797e+03 0.0 0.0 9.0
22  1 1 2   0   0 -1.366355e+03 -1.941668e+03  4.841641e+02  2.423101e+03 0.0 0.0 9.0
21  1 1 2 103 102  1.366355e+03  1.941668e+03 -6.460830e+02  2.460574e+03 0.0 0.0 9.0
#pdf 21 21 3.632120e-01 3.881226e-01 5000.0 1.658270e-02 1.216812e-02
</event>
<event>
4 6 1.0 5000.0 7.905138e-03 7.739137e-02
21 -1 0 0 101 102  0.000000e+00  0.000000e+00  1.544984e+03  1.544984e+03 0.0 0.0 9.0
21 -1 0 0 103 101  0.000000e+00  0.000000e+00 -3.441755e+03  3.441755e+03 0.0 0.0 9.0
21  1 1 2 103 102  9.976247e+02  1.920486e+03 -8.747481e+01  2.165911e+03 0.0 0.0 9.0
22  1 1 2   0   0 -9.976247e+02 -1.920486e+03 -1.809296e+03  2.820828e+03 0.0 0.0 9.0
#pdf 21 21 2.376899e-01 5.295008e-01 5000.0 7.782846e-02 1.863317e-03
</event>
<event>
4 6 1.0 5000.0 7.905138e-03 7.739137e-02
21 -1 0 0 103 101  0.000000e+00  0.000000e+00  2.249844e+03  2.249844e+03 0.0 0.0 9.0
21 -1 0 0 101 102  0.000000e+00  0.000000e+00 -2.804956e+03  2.804956e+03 0.0 0.0 9.0
21  1 1 2 103 102 -6.097653e+02  1.014251e+03 -2.506936e+03  2.772227e+03 0.0 0.0 9.0
22  1 1 2   0   0  6.097653e+02 -1.014251e+03  1.951824e+03  2.282572e+03 0.0 0.0 9.0
#pdf 21 21 3.461298e-01 4.315316e-01 5000.0 2.046946e-02 7.012346e-03
</event>
<event>
4 6 1.0 5000.0 7.905138e-03 7.739137e-02
21 -1 0 0 103 101  0.000000e+00  0.000000e+00  2.431500e+03  2.431500e+03 0.0 0.0 9.0
21 -1 0 0 101 102  0.000000e+00  0.000000e+00 -2.546429e+03  2.546429e+03 0.0 0.0 9.0
21  1 1 2 103 102 -1.562271e+03  3.911073e+02 -1.954807e+03  2.532770e+03 0.0 0.0 9.0
22  1 1 2   0   0  1.562271e+03 -3.911073e+02  1.839878e+03  2.445160e+03 0.0 0.0 9.0
#pdf 21 21 3.740770e-01 3.917584e-01 5000.0 1.449648e-02 1.162342e-02
</event>
<event>
4 6 1.0 5000.0 7.905138e-03 7.739137e-02
21 -1 0 0 101 102  0.000000e+00  0.000000e+00  2.745143e+03  2.745143e+03 0.0 0.0 9.0
21 -1 0 0 103 101  0.000000e+00  0.000000e+00 -2.192385e+03  2.192385e+03 0.0 0.0 9.0
22  1 1 2   0   0  1.940615e+03  9.186342e+02  1.470705e+03  2.602469e+03 0.0 0.0 9.0
21  1 1 2 103 102 -1.940615e+03 -9.186342e+02 -9.179468e+02  2.335059e+03 0.0 0.0 9.0
#pdf 21 21 4.223297e-01 3.372901e-01 5000.0 7.891912e-03 2.280892e-02
</event>
<event>
4 6 1.0 5000.0 7.905138e-03 7.739137e-02
21 -1 0 0 103 101  0.000000e+00  0.000000e+00  3.154210e+03  3.154210e+03 0.0 0.0 9.0
21 -1 0 0 101 102  0.000000e+00  0.000000e+00 -1.786677e+03  1.786677e+03 0.0 0.0 9.0
21  1 1 2 103 102  1.047067e+03 -8.770071e+02 -1.336836e+03  1.911183e+03 0.0 0.0 9.0
22  1 1 2   0   0 -1.047067e+03  8.770071e+02  2.704369e+03  3.029703e+03 0.0 0.0 9.0
#pdf 21 21 4.852630e-01 2.748734e-01 5000.0 3.447130e-03 4.901994e-02
</event>
<event>
4 6 1.0 5000.0 7.905138e-03 7.739137e-02
21 -1 0 0 101 102  0.000000e+00  0.000000e+00  1.699696e+03  1.699696e+03 0.0 0.0 9.0
21 -1 0 0 103 101  0.000000e+00  0.000000e+00 -3.152178e+03  3.152178e+03 0.0 0.0 9.0
22  1 1 2   0   0 -4.437405e+02  2.254689e+03 -4.350003e+02  2.338750e+03 0.0 0.0 9.0
21  1 1 2 103 102  4.437405e+02 -2.254689e+03 -1.017482e+03  2.513125e+03 0.0 0.0 9.0
#pdf 21 21 2.614917e-01 4.849505e-01 5000.0 5.781950e-02 3.461775e-03
</event>
<event>
4 6 1.0 5000.0 7.905138e-03 7.739137e-02
21 -1 0 0 101 102  0.000000e+00  0.000000e+00  2.002151e+03  2.002151e+03 0.0 0.0 9.0
21 -1 0 0 103 101  0.000000e+00  0.000000e+00 -2.751151e+03  2.751151e+03 0.0 0.0 9.0
22  1 1 2   0   0 -2.514968e+02 -1.227297e+03  1.635226e+03  2.059969e+03 0.0 0.0 9.0
21  1 1 2 103 102  2.514968e+02  1.227297e+03 -2.384226e+03  2.693333e+03 0.0 0.0 9.0
#pdf 21 21 3.080232e-01 4.232539e-01 5000.0 3.268233e-02 7.799072e-03
</event>
<event>
4 6 1.0 5000.0 7.905138e-03 7.739137e-02
21 -1 0 0 101 102  0.000000e+00  0.000000e+00  1.811713e+03  1.811713e+03 0.0 0.0 9.0
21 -1 0 0 103 101  0.000000e+00  0.000000e+00 -3.268313e+03  3.268313e+03 0.0 0.0 9.0
21  1 1 2 103 102 -1.190730e+02  2.372714e+03 -1.277968e+03  2.697620e+03 0.0 0.0 9.0
22  1 1 2   0   0  1.190730e+02 -2.372714e+03 -1.786327e+02  2.382406e+03 0.0 0.0 9.0
#pdf 21 21 2.787250e-01 5.028175e-01 5000.0 4.675306e-02 2.710454e-03
</event>
<event>
4 6 1.0 5000.0 7.905138e-03 7.739137e-02
21 -1 0 0 101 102  0.000000e+00  0.000000e+00  1.900968e+03  1.900968e+03 0.0 0.0 9.0
21 -1 0 0 103 101  0.000000e+00  0.000000e+00 -3.372706e+03  3.372706e+03 0.0 0.0 9.0
22  1 1 2   0   0 -8.228955e+02 -1.884355e+03 -2.274657e+03  3.066270e+03 0.0 0.0 9.0
21  1 1 2 103 102  8.228955e+02  1.884355e+03  8.029189e+02  2.207403e+03 0.0 0.0 9.0
#pdf 21 21 2.924566e-01 5.188778e-01 5000.0 3.954329e-02 2.165758e-03
</event>
<event>
4 6 1.0 5000.0 7.905138e-03 7.739137e-02
21 -1 0 0 103 101  0.000000e+00  0.000000e+00  1.336042e+03  1.336042e+03 0.0 0.0 9.0
21 -1 0 0 101 102  0.000000e+00  0.000000e+00 -4.563726e+03  4.563726e+03 0.0 0.0 9.0
22  1 1 2   0   0 -2.085092e+03  1.313306e+03 -1.802545e+03  3.053121e+03 0.0 0.0 9.0
21  1 1 2 103 102  2.085092e+03 -1.313306e+03 -1.425138e+03  2.846647e+03 0.0 0.0 9.0
#pdf 21 21 2.055450e-01 7.021116e-01 5000.0 1.170019e-01 1.036792e-04
</event>
<event>
4 6 1.0 5000.0 7.905138e-03 7.739137e-02
21 -1 0 0 103 101  0.000000e+00  0.000000e+00  2.397801e+03  2.397801e+03 0.0 0.0 9.0
21 -1 0 0 101 102  0.000000e+00  0.000000e+00 -2.650846e+03  2.650846e+03 0.0 0.0 9.0
22  1 1 2   0   0  4.580899e+02  7.066336e+02 -2.505860e+03  2.643579e+03 0.0 0.0 9.0
21  1 1 2 103 102 -4.580899e+02 -7.066336e+02  2.252815e+03  2.405068e+03 0.0 0.0 9.0
#pdf 21 21 3.688925e-01 4.078224e-01 5000.0 1.544781e-02 9.493483e-03
</event>
<event>
4 6 1.0 5000.0 7.905138e-03 7.739137e-02
21 -1 0 0 101 102  0.000000e+00  0.000000e+00  2.288753e+03  2.288753e+03 0.0 0.0 9.0
21 -1 0 0 103 101  0.000000e+00  0.000000e+00 -2.751020e+03  2.751020e+03 0.0 0.0 9.0
22  1 1 2   0   0 -6.533704e+02  1.106073e+03 -2.395743e+03  2.718433e+03 0.0 0.0 9.0
21  1 1 2 103 102  6.533704e+02 -1.106073e+03  1.933476e+03  2.321340e+03 0.0 0.0 9.0
#pdf 21 21 3.521158e-01 4.232338e-01 5000.0 1.901581e-02 7.801079e-03
</event>
<event>
4 6 1.0 5000.0 7.905138e-03 7.739137e-02
21 -1 0 0 103 101  0.000000e+00  0.000000e+00  3.060563e+03  3.060563e+03 0.0 0.0 9.0
21 -1 0 0 101 102  0.000000e+00  0.000000e+00 -1.990975e+03  1.990975e+03 0.0 0.0 9.0
22  1 1 2   0   0 -2.221983e+03  2.198111e+02 -5.422329e+02  2.297725e+03 0.0 0.0 9.0
21  1 1 2 103 102  2.221983e+03 -2.198111e+02  1.611821e+03  2.753814e+03 0.0 0.0 9.0
#pdf 21 21 4.708559e-01 3.063039e-01 5000.0 4.186724e-03 3.337805e-02
</event>
<event>
4 6 1.0 5000.0 7.905138e-03 7.739137e-02
21 -1 0 0 101 102  0.000000e+00  0.000000e+00  1.427895e+03  1.427895e+03 0.0 0.0 9.0
21 -1 0 0 103 101  0.000000e+00  0.000000e+00 -3.953562e+03  3.953562e+03 0.0 0.0 9.0
21  1 1 2 103 102 -2.333529e+03  2.618568e+02 -8.524105e+02  2.498106e+03 0.0 0.0 9.0
22  1 1 2   0   0  2.333529e+03 -2.618568e+02 -1.673256e+03  2.883351e+03 0.0 0.0 9.0
#pdf 21 21 2.196762e-01 6.082403e-01 5000.0 9.768105e-02 5.621637e-04
</event>
<event>
4 6 1.0 5000.0 7.905138e-03 7.739137e-02
21 -1 0 0 101 102  0.000000e+00  0.000000e+00  1.711896e+03  1.711896e+03 0.0 0.0 9.0
21 -1 0 0 103 101  0.000000e+00  0.000000e+00 -3.295269e+03  3.295269e+03 0.0 0.0 9.0
22  1 1 2   0   0 -1.007449e+03 -2.055114e+03 -1.227669e+02  2.292056e+03 0.0 0.0 9.0
21  1 1 2 103 102  1.007449e+03  2.055114e+03 -1.460607e+03  2.715109e+03 0.0 0.0 9.0
#pdf 21 21 2.633686e-01 5.069645e-01 5000.0 5.648482e-02 2.559096e-03
</event>
<event>
4 6 1.0 5000.0 7.905138e-03 7.739137e-02
21 -1 0 0 103 101  0.000000e+00  0.000000e+00  3.081178e+03  3.081178e+03 0.0 0.0 9.0
21 -1 0 0 101 102  0.000000e+00  0.000000e+00 -1.515628e+03  1.515628e+03 0.0 0.0 9.0
21  1 1 2 103 102  1.060379e+03  3.169120e+02 -1.191335e+03  1.626074e+03 0.0 0.0 9.0
22  1 1 2   0   0 -1.060379e+03 -3.169120e+02  2.756884e+03  2.970732e+03 0.0 0.0 9.0
#pdf 21 21 4.740273e-01 2.331736e-01 5000.0 4.012787e-03 8.231598e-02
</event>
<event>
4 6 1.0 5000.0 7.905138e-03 7.739137e-02
21 -1 0 0 101 102  0.000000e+00  0.000000e+00  4.635302e+03  4.635302e+03 0.0 0.0 9.0
21 -1 0 0 103 101  0.000000e+00  0.000000e+00 -1.373064e+03  1.373064e+03 0.0 0.0 9.0
22  1 1 2   0   0 -5.704221e+02 -9.437854e+02 -1.070850e+03  1.537151e+03 0.0 0.0 9.0
21  1 1 2 103 102  5.704221e+02  9.437854e+02  4.333089e+03  4.471216e+03 0.0 0.0 9.0
#pdf 21 21 7.131234e-01 2.112406e-01 5000.0 8.285749e-05 1.087926e-01
</event>
<event>
4 6 1.0 5000.0 7.905138e-03 7.739137e-02
21 -1 0 0 101 102  0.000000e+00  0.000000e+00  1.806605e+03  1.806605e+03 0.0 0.0 9.0
21 -1 0 0 103 101  0.000000e+00  0.000000e+00 -3.016105e+03  3.016105e+03 0.0 0.0 9.0
21  1 1 2 103 102  4.115413e+02 -2.099480e+03  3.597379e+02  2.169469e+03 0.0 0.0 9.0
22  1 1 2   0   0 -4.115413e+02  2.099480e+03 -1.569237e+03  2.653241e+03 0.0 0.0 9.0
#pdf 21 21 2.779393e-01 4.640161e-01 5000.0 4.720720e-02 4.584734e-03
</event>
<event>
4 6 1.0 5000.0 7.905138e-03 7.739137e-02
21 -1 0 0 101 102  0.000000e+00  0.000000e+00  3.646095e+03  3.646095e+03 0.0 0.0 9.0
21 -1 0 0 103 101  0.000000e+00  0.000000e+00 -1.623620e+03  1.623620e+03 0.0 0.0 9.0
22  1 1 2   0   0  8.448439e+02  1.815120e+03 -4.859716e+02  2.060240e+03 0.0 0.0 9.0
21  1 1 2 103 102 -8.448439e+02 -1.815120e+03  2.508446e+03  3.209474e+03 0.0 0.0 9.0
#pdf 21 21 5.609376e-01 2.497877e-01 5000.0 1.176689e-03 6.691104e-02
</event>
<event>
4 6 1.0 5000.0 7.905138e-03 7.739137e-02
21 -1 0 0 101 102  0.000000e+00  0.000000e+00  2.514099e+03  2.514099e+03 0.0 0.0 9.0
21 -1 0 0 103 101  0.000000e+00  0.000000e+00 -1.972323e+03  1.972323e+03 0.0 0.0 9.0
22  1 1 2   0   0 -1.288401e+03 -4.352309e+02  2.047183e+03  2.457715e+03 0.0 0.0 9.0
21  1 1 2 103 102  1.288401e+03  4.352309e+02 -1.505406e+03  2.028707e+03 0.0 0.0 9.0
#pdf 21 21 3.867845e-01 3.034343e-01 5000.0 1.237526e-02 3.455986e-02
</event>
<event>
4 6 1.0 5000.0 7.905138e-03 7.739137e-02
21 -1 0 0 103 101  0.000000e+00  0.000000e+00  2.535334e+03  2.535334e+03 0.0 0.0 9.0
21 -1 0 0 101 102  0.000000e+00  0.000000e+00 -2.482162e+03  2.482162e+03 0.0 0.0 9.0
21  1 1 2 103 102 -1.656123e+03  1.870618e+03 -1.996048e+02  2.506351e+03 0.0 0.0 9.0
22  1 1 2   0   0  1.656123e+03 -1.870618e+03  2.527765e+02  2.511145e+03 0.0 0.0 9.0
#pdf 21 21 3.900514e-01 3.818711e-01 5000.0 1.187581e-02 1.316433e-02
</event>
<event>
4 6 1.0 5000.0 7.905138e-03 7.739137e-02
21 -1 0 0 101 102  0.000000e+00  0.000000e+00  2.993794e+03  2.993794e+03 0.0 0.0 9.0
21 -1 0 0 103 101  0.000000e+00  0.000000e+00 -2.043783e+03  2.043783e+03 0.0 0.0 9.0
22  1 1 2   0   0 -1.212301e+03 -1.671142e+03  1.862350e+03  2.780421e+03 0.0 0.0 9.0
21  1 1 2 103 102  1.212301e+03  1.671142e+03 -9.123394e+02  2.257156e+03 0.0 0.0 9.0
#pdf 21 21 4.605837e-01 3.144282e-01 5000.0 4.798067e-03 3.019432e-02
</event>
<event>
4 6 1.0 5000.0 7.905138e-03 7.739137e-02
21 -1 0 0 103 101  0.000000e+00  0.000000e+00  2.419728e+03  2.419728e+03 0.0 0.0 9.0
21 -1 0 0 101 102  0.000000e+00  0.000000e+00 -2.768540e+03  2.768540e+03 0.0 0.0 9.0
22  1 1 2   0   0 -1.747466e+03 -4.601668e+01  1.738680e+03  2.465515e+03 0.0 0.0 9.0
21  1 1 2 103 102  1.747466e+03  4.601668e+01 -2.087493e+03  2.722753e+03 0.0 0.0 9.0
#pdf 21 21 3.722658e-01 4.259292e-01 5000.0 1.481798e-02 7.535549e-03
</event>
<event>
4 6 1.0 5000.0 7.905138e-03 7.739137e-02
21 -1 0 0 101 102  0.000000e+00  0.000000e+00  1.626449e+03  1.626449e+03 0.0 0.0 9.0
21 -1 0 0 103 101  0.000000e+00  0.000000e+00 -3.506320e+03  3.506320e+03 0.0 0.0 9.0
21  1 1 2 103 102 -1.023908e+03  2.108183e+03 -4.474256e+02  2.386003e+03 0.0 0.0 9.0
22  1 1 2   0   0  1.023908e+03 -2.108183e+03 -1.432445e+03  2.746766e+03 0.0 0.0 9.0
#pdf 21 21 2.502229e-01 5.394338e-01 5000.0 6.655372e-02 1.612950e-03
</event>
<event>
4 6 1.0 5000.0 7.905138e-03 7.739137e-02
21 -1 0 0 103 101  0.000000e+00  0.000000e+00  2.133079e+03  2.133079e+03 0.0 0.0 9.0
21 -1 0 0 101 102  0.000000e+00  0.000000e+00 -3.049415e+03  3.049415e+03 0.0 0.0 9.0
21  1 1 2 103 102 -3.593469e+02  6.101344e+02  2.031207e+03  2.151092e+03 0.0 0.0 9.0
22  1 1 2   0   0  3.593469e+02 -6.101344e+02 -2.947543e+03  3.031403e+03 0.0 0.0 9.0
#pdf 21 21 3.281660e-01 4.691408e-01 5000.0 2.551250e-02 4.283531e-03
</event>
<event>
4 6 1.0 5000.0 7.905138e-03 7.739137e-02
21 -1 0 0 101 102  0.000000e+00  0.000000e+00  1.591271e+03  1.591271e+03 0.0 0.0 9.0
21 -1 0 0 103 101  0.000000e+00  0.000000e+00 -3.303097e+03  3.303097e+03 0.0 0.0 9.0
22  1 1 2   0   0 -1.494688e+03 -1.660345e+03 -3.061336e+02  2.254896e+03 0.0 0.0 9.0
21  1 1 2 103 102  1.494688e+03  1.660345e+03 -1.405693e+03  2.639472e+03 0.0 0.0 9.0
#pdf 21 21 2.448109e-01 5.081688e-01 5000.0 7.113340e-02 2.516687e-03
</event>
<event>
4 6 1.0 5000.0 7.905138e-03 7.739137e-02
21 -1 0 0 101 102  0.000000e+00  0.000000e+00  2.356162e+03  2.356162e+03 0.0 0.0 9.0
21 -1 0 0 103 101  0.000000e+00  0.000000e+00 -2.530553e+03  2.530553e+03 0.0 0.0 9.0
21  1 1 2 103 102 -2.332113e+03 -7.157651e+02 -1.936693e+02  2.447157e+03 0.0 0.0 9.0
22  1 1 2   0   0  2.332113e+03  7.157651e+02  1.927751e+01  2.439558e+03 0.0 0.0 9.0
#pdf 21 21 3.624864e-01 3.893159e-01 5000.0 1.673115e-02 1.198639e-02
</event>
<event>
4 6 1.0 5000.0 7.905138e-03 7.739137e-02
21 -1 0 0 101 102  0.000000e+00  0.000000e+00  3.419903e+03  3.419903e+03 0.0 0.0 9.0
21 -1 0 0 103 101  0.000000e+00  0.000000e+00 -1.827134e+03  1.827134e+03 0.0 0.0 9.0
22  1 1 2   0   0 -1.929978e+03 -6.310303e+02  2.326533e+03  3.088004e+03 0.0 0.0 9.0
21  1 1 2 103 102  1.929978e+03  6.310303e+02 -7.337640e+02  2.159033e+03 0.0 0.0 9.0
#pdf 21 21 5.261389e-01 2.810976e-01 5000.0 1.954499e-03 4.540620e-02
</event>
<event>
4 6 1.0 5000.0 7.905138e-03 7.739137e-02
21 -1 0 0 103 101  0.000000e+00  0.000000e+00  2.772794e+03  2.772794e+03 0.0 0.0 9.0
21 -1 0 0 101 102  0.000000e+00  0.000000e+00 -1.662453e+03  1.662453e+03 0.0 0.0 9.0
22  1 1 2   0   0  1.772801e+03  8.444544e+02  1.451890e+03  2.442112e+03 0.0 0.0 9.0
21  1 1 2 103 102 -1.772801e+03 -8.444544e+02 -3.415497e+02  1.993134e+03 0.0 0.0 9.0
#pdf 21 21 4.265836e-01 2.557620e-01 5000.0 7.472224e-03 6.212224e-02
</event>
<event>
4 6 1.0 5000.0 7.905138e-03 7.739137e-02
21 -1 0 0 103 101  0.000000e+00  0.000000e+00  2.863727e+03  2.863727e+03 0.0 0.0 9.0
21 -1 0 0 101 102  0.000000e+00  0.000000e+00 -1.631359e+03  1.631359e+03 0.0 0.0 9.0
21  1 1 2 103 102  2.058781e+03  5.788394e+02  2.904400e+02  2.158237e+03 0.0 0.0 9.0
22  1 1 2   0   0 -2.058781e+03 -5.788394e+02  9.419282e+02  2.336849e+03 0.0 0.0 9.0
#pdf 21 21 4.405734e-01 2.509783e-01 5000.0 6.243754e-03 6.593640e-02
</event>
<event>
4 6 1.0 5000.0 7.905138e-03 7.739137e-02
21 -1 0 0 103 101  0.000000e+00  0.000000e+00  2.006524e+03  2.006524e+03 0.0 0.0 9.0
21 -1 0 0 101 102  0.000000e+00  0.000000e+00 -3.287748e+03  3.287748e+03 0.0 0.0 9.0
22  1 1 2   0   0  8.215705e+02  1.163033e+03  1.562470e+03  2.113986e+03 0.0 0.0 9.0
21  1 1 2 103 102 -8.215705e+02 -1.163033e+03 -2.843694e+03  3.180286e+03 0.0 0.0 9.0
#pdf 21 21 3.086961e-01 5.058074e-01 5000.0 3.241294e-02 2.600482e-03
</event>
<event>
4 6 1.0 5000.0 7.905138e-03 7.739137e-02
21 -1 0 0 103 101  0.000000e+00  0.000000e+00  1.565362e+03  1.565362e+03 0.0 0.0 9.0
21 -1 0 0 101 102  0.000000e+00  0.000000e+00 -3.568963e+03  3.568963e+03 0.0 0.0 9.0
22  1 1 2   0   0  1.183887e+03 -5.225310e+02  1.146423e+03  1.728847e+03 0.0 0.0 9.0
21  1 1 2 103 102 -1.183887e+03  5.225310e+02 -3.150024e+03  3.405477e+03 0.0 0.0 9.0
#pdf 21 21 2.408249e-01 5.490712e-01 5000.0 7.483818e-02 1.400979e-03
</event>
<event>
4 6 1.0 5000.0 7.905138e-03 7.739137e-02
21 -1 0 0 103 101  0.000000e+00  0.000000e+00  2.779034e+03  2.779034e+03 0.0 0.0 9.0
21 -1 0 0 101 102  0.000000e+00  0.000000e+00 -1.600194e+03  1.600194e+03 0.0 0.0 9.0
21  1 1 2 103 102 -7.643317e+00 -1.600570e+03  2.015037e+03  2.573374e+03 0.0 0.0 9.0
22  1 1 2   0   0  7.643317e+00  1.600570e+03 -8.361967e+02  1.805854e+03 0.0 0.0 9.0
#pdf 21 21 4.275437e-01 2.461837e-01 5000.0 7.380198e-03 6.990962e-02
</event>
<event>
4 6 1.0 5000.0 7.905138e-03 7.739137e-02
21 -1 0 0 101 102  0.000000e+00  0.000000e+00  1.501127e+03  1.501127e+03 0.0 0.0 9.0
21 -1 0 0 103 101  0.000000e+00  0.000000e+00 -3.093449e+03  3.093449e+03 0.0 0.0 9.0
21  1 1 2 103 102  8.992432e+02 -5.652019e+02 -2.795024e+03  2.990025e+03 0.0 0.0 9.0
22  1 1 2   0   0 -8.992432e+02  5.652019e+02  1.202702e+03  1.604551e+03 0.0 0.0 9.0
#pdf 21 21 2.309426e-01 4.759152e-01 5000.0 8.463563e-02 3.912293e-03
</event>
<event>
4 6 1.0 5000.0 7.905138e-03 7.739137e-02
21 -1 0 0 103 101  0.000000e+00  0.000000e+00  1.780873e+03  1.780873e+03 0.0 0.0 9.0
21 -1 0 0 101 102  0.000000e+00  0.000000e+00 -2.653364e+03  2.653364e+03 0.0 0.0 9.0
21  1 1 2 103 102  3.027246e+02 -6.625081e+02 -2.525189e+03  2.628144e+03 0.0 0.0 9.0
22  1 1 2   0   0 -3.027246e+02  6.625081e+02  1.652698e+03  1.806093e+03 0.0 0.0 9.0
#pdf 21 21 2.739804e-01 4.082098e-01 5000.0 4.956062e-02 9.446808e-03
</event>
<event>
4 6 1.0 5000.0 7.905138e-03 7.739137e-02
21 -1 0 0 103 101  0.000000e+00  0.000000e+00  2.304523e+03  2.304523e+03 0.0 0.0 9.0
21 -1 0 0 101 102  0.000000e+00  0.000000e+00 -2.862481e+03  2.862481e+03 0.0 0.0 9.0
21  1 1 2 103 102  7.096365e+02  2.236001e+03 -1.330772e+03  2.697080e+03 0.0 0.0 9.0
22  1 1 2   0   0 -7.096365e+02 -2.236001e+03  7.728132e+02  2.469924e+03 0.0 0.0 9.0
#pdf 21 21 3.545419e-01 4.403817e-01 5000.0 1.844948e-02 6.259376e-03
</event>
<event>
4 6 1.0 5000.0 7.905138e-03 7.739137e-02
21 -1 0 0 101 102  0.000000e+00  0.000000e+00  1.485596e+03  1.485596e+03 0.0 0.0 9.0
21 -1 0 0 103 101  0.000000e+00  0.000000e+00 -3.278727e+03  3.278727e+03 0.0 0.0 9.0
22  1 1 2   0   0 -1.672542e+03 -1.138652e+03  5.482997e+01  2.024088e+03 0.0 0.0 9.0
21  1 1 2 103 102  1.672542e+03  1.138652e+03 -1.847961e+03  2.740234e+03 0.0 0.0 9.0
#pdf 21 21 2.285532e-01 5.044195e-01 5000.0 8.721364e-02 2.650972e-03
</event>
<event>
4 6 1.0 5000.0 7.905138e-03 7.739137e-02
21 -1 0 0 103 101  0.000000e+00  0.000000e+00  3.860114e+03  3.860114e+03 0.0 0.0 9.0
21 -1 0 0 101 102  0.000000e+00  0.000000e+00 -1.699801e+03  1.699801e+03 0.0 0.0 9.0
21  1 1 2 103 102  9.260625e+02 -6.259997e+02 -1.421147e+03  1.808072e+03 0.0 0.0 9.0
22  1 1 2   0   0 -9.260625e+02  6.259997e+02  3.581460e+03  3.751843e+03 0.0 0.0 9.0
#pdf 21 21 5.938637e-01 2.615078e-01 5000.0 7.074503e-04 5.780787e-02
</event>
<event>
4 6 1.0 5000.0 7.905138e-03 7.739137e-02
21 -1 0 0 101 102  0.000000e+00  0.000000e+00  1.755133e+03  1.755133e+03 0.0 0.0 9.0
21 -1 0 0 103 101  0.000000e+00  0.000000e+00 -3.450675e+03  3.450675e+03 0.0 0.0 9.0
22  1 1 2   0   0 -8.349402e+02 -3.837404e+02 -3.262419e+03  3.389360e+03 0.0 0.0 9.0
21  1 1 2 103 102  8.349402e+02  3.837404e+02  1.566877e+03  1.816449e+03 0.0 0.0 9.0
#pdf 21 21 2.700205e-01 5.308731e-01 5000.0 5.203236e-02 1.827084e-03
</event>
<event>
4 6 1.0 5000.0 7.905138e-03 7.739137e-02
21 -1 0 0 103 101  0.000000e+00  0.000000e+00  2.809221e+03  2.809221e+03 0.0 0.0 9.0
21 -1 0 0 101 102  0.000000e+00  0.000000e+00 -2.080106e+03  2.080106e+03 0.0 0.0 9.0
22  1 1 2   0   0 -1.856803e+03  1.035422e+03  1.528072e+03  2.618171e+03 0.0 0.0 9.0
21  1 1 2 103 102  1.856803e+03 -1.035422e+03 -7.989572e+02  2.271156e+03 0.0 0.0 9.0
#pdf 21 21 4.321879e-01 3.200164e-01 5000.0 6.953834e-03 2.818724e-02
</event>
<event>
4 6 1.0 5000.0 7.905138e-03 7.739137e-02
21 -1 0 0 101 102  0.000000e+00  0.000000e+00  2.602659e+03  2.602659e+03 0.0 0.0 9.0
21 -1 0 0 103 101  0.000000e+00  0.000000e+00 -2.384495e+03  2.384495e+03 0.0 0.0 9.0
21  1 1 2 103 102 -1.267070e+03 -8.285945e+02 -1.871195e+03  2.406950e+03 0.0 0.0 9.0
22  1 1 2   0   0  1.267070e+03  8.285945e+02  2.089359e+03  2.580205e+03 0.0 0.0 9.0
#pdf 21 21 4.004091e-01 3.668454e-01 5000.0 1.042599e-02 1.585133e-02
</event>
<event>
4 6 1.0 5000.0 7.905138e-03 7.739137e-02
21 -1 0 0 103 101  0.000000e+00  0.000000e+00  3.486652e+03  3.486652e+03 0.0 0.0 9.0
21 -1 0 0 101 102  0.000000e+00  0.000000e+00 -1.527214e+03  1.527214e+03 0.0 0.0 9.0
22  1 1 2   0   0 -1.720445e+03 -1.375814e+03  1.726151e+03  2.798641e+03 0.0 0.0 9.0
21  1 1 2 103 102  1.720445e+03  1.375814e+03  2.332870e+02  2.215224e+03 0.0 0.0 9.0
#pdf 21 21 5.364079e-01 2.349559e-01 5000.0 1.685717e-03 8.051503e-02
</event>
<event>
4 6 1.0 5000.0 7.905138e-03 7.739137e-02
21 -1 0 0 103 101  0.000000e+00  0.000000e+00  1.559939e+03  1.559939e+03 0.0 0.0 9.0
21 -1 0 0 101 102  0.000000e+00  0.000000e+00 -4.362402e+03  4.362402e+03 0.0 0.0 9.0
22  1 1 2   0   0 -2.477936e+03 -5.642427e+02 -2.069460e+03  3.277378e+03 0.0 0.0 9.0
21  1 1 2 103 102  2.477936e+03  5.642427e+02 -7.330019e+02  2.644963e+03 0.0 0.0 9.0
#pdf 21 21 2.399907e-01 6.711387e-01 5000.0 7.562596e-02 1.888322e-04
</event>
<event>
4 6 1.0 5000.0 7.905138e-03 7.739137e-02
21 -1 0 0 101 102  0.000000e+00  0.000000e+00  3.139212e+03  3.139212e+03 0.0 0.0 9.0
21 -1 0 0 103 101  0.000000e+00  0.000000e+00 -1.890973e+03  1.890973e+03 0.0 0.0 9.0
22  1 1 2   0   0 -1.057904e+02 -8.061197e+02 -1.746808e+03  1.926748e+03 0.0 0.0 9.0
21  1 1 2 103 102  1.057904e+02  8.061197e+02  2.995046e+03  3.103437e+03 0.0 0.0 9.0
#pdf 21 21 4.829557e-01 2.909190e-01 5000.0 3.556762e-03 4.028831e-02
</event>
<event>
4 6 1.0 5000.0 7.905138e-03 7.739137e-02
21 -1 0 0 103 101  0.000000e+00  0.000000e+00  2.512968e+03  2.512968e+03 0.0 0.0 9.0
21 -1 0 0 101 102  0.000000e+00  0.000000e+00 -2.263612e+03  2.263612e+03 0.0 0.0 9.0
22  1 1 2   0   0 -1.006464e+03 -7.237070e+02 -1.915667e+03  2.281776e+03 0.0 0.0 9.0
21  1 1 2 103 102  1.006464e+03  7.237070e+02  2.165023e+03  2.494804e+03 0.0 0.0 9.0
#pdf 21 21 3.866105e-01 3.482479e-01 5000.0 1.240244e-02 1.994493e-02
</event>
<event>
4 6 1.0 5000.0 7.905138e-03 7.739137e-02
21 -1 0 0 103 101  0.000000e+00  0.000000e+00  3.384575e+03  3.384575e+03 0.0 0.0 9.0
21 -1 0 0 101 102  0.000000e+00  0.000000e+00 -1.747699e+03  1.747699e+03 0.0 0.0 9.0
22  1 1 2   0   0  2.287617e+03  6.208871e+02  2.438898e+02  2.382892e+03 0.0 0.0 9.0
21  1 1 2 103 102 -2.287617e+03 -6.208871e+02  1.392987e+03  2.749382e+03 0.0 0.0 9.0
#pdf 21 21 5.207039e-01 2.688767e-01 5000.0 2.110532e-03 5.277000e-02
</event>
<event>
4 6 1.0 5000.0 7.905138e-03 7.739137e-02
21 -1 0 0 103 101  0.000000e+00  0.000000e+00  2.122420e+03  2.122420e+03 0.0 0.0 9.0
21 -1 0 0 101 102  0.000000e+00  0.000000e+00 -2.897142e+03  2.897142e+03 0.0 0.0 9.0
22  1 1 2   0   0 -6.008893e+02 -6.896554e+02  1.945425e+03  2.149738e+03 0.0 0.0 9.0
21  1 1 2 103 102  6.008893e+02  6.896554e+02 -2.720148e+03  2.869825e+03 0.0 0.0 9.0
#pdf 21 21 3.265262e-01 4.457142e-01 5000.0 2.602935e-02 5.831546e-03
</event>
<event>
4 6 1.0 5000.0 7.905138e-03 7.739137e-02
21 -1 0 0 103 101  0.000000e+00  0.000000e+00  2.732115e+03  2.732115e+03 0.0 0.0 9.0
21 -1 0 0 101 102  0.000000e+00  0.000000e+00 -2.107427e+03  2.107427e+03 0.0 0.0 9.0
22  1 1 2   0   0  6.581130e+02 -2.305640e+03  4.061052e+02  2.431874e+03 0.0 0.0 9.0
21  1 1 2 103 102 -6.581130e+02  2.305640e+03  2.185835e+02  2.407668e+03 0.0 0.0 9.0
#pdf 21 21 4.203254e-01 3.242195e-01 5000.0 8.096612e-03 2.677397e-02
</event>
<event>
4 6 1.0 5000.0 7.905138e-03 7.739137e-02
21 -1 0 0 101 102  0.000000e+00  0.000000e+00  1.933538e+03  1.933538e+03 0.0 0.0 9.0
21 -1 0 0 103 101  0.000000e+00  0.000000e+00 -3.198121e+03  3.198121e+03 0.0 0.0 9.0
22  1 1 2   0   0 -5.205683e+01  1.875606e+03 -2.316113e+03  2.980770e+03 0.0 0.0 9.0
21  1 1 2 103 102  5.205683e+01 -1.875606e+03  1.051531e+03  2.150889e+03 0.0 0.0 9.0
#pdf 21 21 2.974674e-01 4.920186e-01 5000.0 3.717942e-02 3.144860e-03
</event>
<event>
4 6 1.0 5000.0 7.905138e-03 7.739137e-02
21 -1 0 0 101 102  0.000000e+00  0.000000e+00  2.583569e+03  2.583569e+03 0.0 0.0 9.0
21 -1 0 0 103 101  0.000000e+00  0.000000e+00 -2.166750e+03  2.166750e+03 0.0 0.0 9.0
21  1 1 2 103 102  1.155984e+03 -8.609298e+02 -1.675142e+03  2.209886e+03 0.0 0.0 9.0
22  1 1 2   0   0 -1.155984e+03  8.609298e+02  2.091960e+03  2.540432e+03 0.0 0.0 9.0
#pdf 21 21 3.974721e-01 3.333462e-01 5000.0 1.081814e-02 2.394344e-02
</event>
<event>
4 6 1.0 5000.0 7.905138e-03 7.739137e-02
21 -1 0 0 101 102  0.000000e+00  0.000000e+00  2.093649e+03  2.093649e+03 0.0 0.0 9.0
21 -1 0 0 103 101  0.000000e+00  0.000000e+00 -3.048294e+03  3.048294e+03 0.0 0.0 9.0
21  1 1 2 103 102 -1.223830e+03 -4.824241e+02  1.717585e+03  2.163468e+03 0.0 0.0 9.0
22  1 1 2   0   0  1.223830e+03  4.824241e+02 -2.672231e+03  2.978475e+03 0.0 0.0 9.0
#pdf 21 21 3.220998e-01 4.689683e-01 5000.0 2.747729e-02 4.293374e-03
</event>
<event>
4 6 1.0 5000.0 7.905138e-03 7.739137e-02
21 -1 0 0 101 102  0.000000e+00  0.000000e+00  1.862530e+03  1.862530e+03 0.0 0.0 9.0
21 -1 0 0 103 101  0.000000e+00  0.000000e+00 -2.651218e+03  2.651218e+03 0.0 0.0 9.0
22  1 1 2   0   0 -1.858731e+03 -2.458227e+02 -1.605735e+03  2.468541e+03 0.0 0.0 9.0
21  1 1 2 103 102  1.858731e+03  2.458227e+02  8.170464e+02  2.045208e+03 0.0 0.0 9.0
#pdf 21 21 2.865431e-01 4.078797e-01 5000.0 4.248047e-02 9.486567e-03
</event>
<event>
4 6 1.0 5000.0 7.905138e-03 7.739137e-02
21 -1 0 0 101 102  0.000000e+00  0.000000e+00  1.921523e+03  1.921523e+03 0.0 0.0 9.0
21 -1 0 0 103 101  0.000000e+00  0.000000e+00 -3.228041e+03  3.228041e+03 0.0 0.0 9.0
21  1 1 2 103 102  3.580371e+02 -1.016348e+03 -2.974565e+03  3.163731e+03 0.0 0.0 9.0
22  1 1 2   0   0 -3.580371e+02  1.016348e+03  1.668047e+03  1.985834e+03 0.0 0.0 9.0
#pdf 21 21 2.956190e-01 4.966217e-01 5000.0 3.804202e-02 2.952955e-03
</event>
<event>
4 6 1.0 5000.0 7.905138e-03 7.739137e-02
21 -1 0 0 103 101  0.000000e+00  0.000000e+00  2.422962e+03  2.422962e+03 0.0 0.0 9.0
21 -1 0 0 101 102  0.000000e+00  0.000000e+00 -2.731098e+03  2.731098e+03 0.0 0.0 9.0
22  1 1 2   0   0  2.383765e+03  3.124559e+02  7.626580e+02  2.522223e+03 0.0 0.0 9.0
21  1 1 2 103 102 -2.383765e+03 -3.124559e+02 -1.070794e+03  2.631836e+03 0.0 0.0 9.0
#pdf 21 21 3.727634e-01 4.201689e-01 5000.0 1.472922e-02 8.112798e-03
</event>
<event>
4 6 1.0 5000.0 7.905138e-03 7.739137e-02
21 -1 0 0 103 101  0.000000e+00  0.000000e+00  2.242532e+03  2.242532e+03 0.0 0.0 9.0
21 -1 0 0 101 102  0.000000e+00  0.000000e+00 -2.754946e+03  2.754946e+03 0.0 0.0 9.0
21  1 1 2 103 102 -1.774334e+03 -9.284477e+02  1.223933e+03  2.346974e+03 0.0 0.0 9.0
22  1 1 2   0   0  1.774334e+03  9.284477e+02 -1.736347e+03  2.650505e+03 0.0 0.0 9.0
#pdf 21 21 3.450050e-01 4.238379e-01 5000.0 2.075306e-02 7.740898e-03
</event>
<event>
4 6 1.0 5000.0 7.905138e-03 7.739137e-02
21 -1 0 0 101 102  0.000000e+00  0.000000e+00  1.743685e+03  1.743685e+03 0.0 0.0 9.0
21 -1 0 0 103 101  0.000000e+00  0.000000e+00 -3.546551e+03  3.546551e+03 0.0 0.0 9.0
22  1 1 2   0   0  1.795530e+03  1.514255e+03 -3.261826e+01  2.349034e+03 0.0 0.0 9.0
21  1 1 2 103 102 -1.795530e+03 -1.514255e+03 -1.770248e+03  2.941203e+03 0.0 0.0 9.0
#pdf 21 21 2.682593e-01 5.456233e-01 5000.0 5.317283e-02 1.474588e-03
</event>
<event>
4 6 1.0 5000.0 7.905138e-03 7.739137e-02
21 -1 0 0 101 102  0.000000e+00  0.000000e+00  2.383958e+03  2.383958e+03 0.0 0.0 9.0
21 -1 0 0 103 101  0.000000e+00  0.000000e+00 -2.748264e+03  2.748264e+03 0.0 0.0 9.0
22  1 1 2   0   0 -4.000211e+02 -2.482083e+03 -6.639870e+02  2.600314e+03 0.0 0.0 9.0
21  1 1 2 103 102  4.000211e+02  2.482083e+03  2.996807e+02  2.531908e+03 0.0 0.0 9.0
#pdf 21 21 3.667628e-01 4.228099e-01 5000.0 1.586781e-02 7.843560e-03
</event>
<event>
4 6 1.0 5000.0 7.905138e-03 7.739137e-02
21 -1 0 0 103 101  0.000000e+00  0.000000e+00  3.123705e+03  3.123705e+03 0.0 0.0 9.0
21 -1 0 0 101 102  0.000000e+00  0.000000e+00 -1.704770e+03  1.704770e+03 0.0 0.0 9.0
21  1 1 2 103 102  1.379926e+03 -1.305712e+03  2.079989e+03  2.816990e+03 0.0 0.0 9.0
22  1 1 2   0   0 -1.379926e+03  1.305712e+03 -6.610529e+02  2.011485e+03 0.0 0.0 9.0
#pdf 21 21 4.805701e-01 2.622723e-01 5000.0 3.673854e-03 5.725962e-02
</event>
<event>
4 6 1.0 5000.0 7.905138e-03 7.739137e-02
21 -1 0 0 103 101  0.000000e+00  0.000000e+00  4.024450e+03  4.024450e+03 0.0 0.0 9.0
21 -1 0 0 101 102  0.000000e+00  0.000000e+00 -1.626214e+03  1.626214e+03 0.0 0.0 9.0
21  1 1 2 103 102  2.280114e+03 -3.033597e+02 -3.745258e+01  2.300511e+03 0.0 0.0 9.0
22  1 1 2   0   0 -2.280114e+03  3.033597e+02  2.435688e+03  3.350153e+03 0.0 0.0 9.0
#pdf 21 21 6.191461e-01 2.501868e-01 5000.0 4.700110e-04 6.658337e-02
</event>
<event>
4 6 1.0 5000.0 7.905138e-03 7.739137e-02
21 -1 0 0 101 102  0.000000e+00  0.000000e+00  1.888060e+03  1.888060e+03 0.0 0.0 9.0
21 -1 0 0 103 101  0.000000e+00  0.000000e+00 -3.339428e+03  3.339428e+03 0.0 0.0 9.0
22  1 1 2   0   0 -1.839508e+03 -3.237549e+02  1.021220e+03  2.128731e+03 0.0 0.0 9.0
21  1 1 2 103 102  1.839508e+03  3.237549e+02 -2.472588e+03  3.098757e+03 0.0 0.0 9.0
#pdf 21 21 2.904708e-01 5.137582e-01 5000.0 4.050766e-02 2.328030e-03
</event>
<event>
4 6 1.0 5000.0 7.905138e-03 7.739137e-02
21 -1 0 0 101 102  0.000000e+00  0.000000e+00  2.898853e+03  2.898853e+03 0.0 0.0 9.0
21 -1 0 0 103 101  0.000000e+00  0.000000e+00 -1.634554e+03  1.634554e+03 0.0 0.0 9.0
22  1 1 2   0   0  6.457006e+02  2.571654e+02  2.780205e+03  2.865764e+03 0.0 0.0 9.0
21  1 1 2 103 102 -6.457006e+02 -2.571654e+02 -1.515906e+03  1.667643e+03 0.0 0.0 9.0
#pdf 21 21 4.459774e-01 2.514698e-01 5000.0 5.811198e-03 6.553668e-02
</event>
<event>
4 6 1.0 5000.0 7.905138e-03 7.739137e-02
21 -1 0 0 101 102  0.000000e+00  0.000000e+00  3.626037e+03  3.626037e+03 0.0 0.0 9.0
21 -1 0 0 103 101  0.000000e+00  0.000000e+00 -1.807801e+03  1.807801e+03 0.0 0.0 9.0
22  1 1 2   0   0  5.023490e+02  2.509907e+03  8.494117e+02  2.696941e+03 0.0 0.0 9.0
21  1 1 2 103 102 -5.023490e+02 -2.509907e+03  9.688244e+02  2.736898e+03 0.0 0.0 9.0
#pdf 21 21 5.578519e-01 2.781233e-01 5000.0 1.231923e-03 4.710049e-02
</event>
<event>
4 6 1.0 5000.0 7.905138e-03 7.739137e-02
21 -1 0 0 103 101  0.000000e+00  0.000000e+00  2.420185e+03  2.420185e+03 0.0 0.0 9.0
21 -1 0 0 101 102  0.000000e+00  0.000000e+00 -2.513308e+03  2.513308e+03 0.0 0.0 9.0
22  1 1 2   0   0 -4.146216e+02 -2.280929e+03 -8.882110e+02  2.482633e+03 0.0 0.0 9.0
21  1 1 2 103 102  4.146216e+02  2.280929e+03  7.950888e+02  2.450860e+03 0.0 0.0 9.0
#pdf 21 21 3.723362e-01 3.866627e-01 5000.0 1.480537e-02 1.239428e-02
</event>
<event>
4 6 1.0 5000.0 7.905138e-03 7.739137e-02
21 -1 0 0 101 102  0.000000e+00  0.000000e+00  3.502147e+03  3.502147e+03 0.0 0.0 9.0
21 -1 0 0 103 101  0.000000e+00  0.000000e+00 -1.791988e+03  1.791988e+03 0.0 0.0 9.0
21  1 1 2 103 102  9.962063e+02 -1.952351e+03  2.136940e+03  3.061145e+03 0.0 0.0 9.0
22  1 1 2   0   0 -9.962063e+02  1.952351e+03 -4.267804e+02  2.232989e+03 0.0 0.0 9.0
#pdf 21 21 5.387919e-01 2.756904e-01 5000.0 1.628037e-03 4.853034e-02
</event>
<event>
4 6 1.0 5000.0 7.905138e-03 7.739137e-02
21 -1 0 0 103 101  0.000000e+00  0.000000e+00  1.543415e+03  1.543415e+03 0.0 0.0 9.0
21 -1 0 0 101 102  0.000000e+00  0.000000e+00 -4.280291e+03  4.280291e+03 0.0 0.0 9.0
22  1 1 2   0   0 -2.074645e+03 -6.597478e+01  3.488534e+02  2.104805e+03 0.0 0.0 9.0
21  1 1 2 103 102  2.074645e+03  6.597478e+01 -3.085729e+03  3.718902e+03 0.0 0.0 9.0
#pdf 21 21 2.374485e-01 6.585064e-01 5000.0 7.806236e-02 2.382862e-04
</event>
<event>
4 6 1.0 5000.0 7.905138e-03 7.739137e-02
21 -1 0 0 101 102  0.000000e+00  0.000000e+00  2.254204e+03  2.254204e+03 0.0 0.0 9.0
21 -1 0 0 103 101  0.000000e+00  0.000000e+00 -2.821210e+03  2.821210e+03 0.0 0.0 9.0
22  1 1 2   0   0  2.236831e+02 -1.074613e+03 -2.568214e+03  2.792946e+03 0.0 0.0 9.0
21  1 1 2 103 102 -2.236831e+02  1.074613e+03  2.001207e+03  2.282467e+03 0.0 0.0 9.0
#pdf 21 21 3.468006e-01 4.340323e-01 5000.0 2.030205e-02 6.792043e-03
</event>
<event>
4 6 1.0 5000.0 7.905138e-03 7.739137e-02
21 -1 0 0 101 102  0.000000e+00  0.000000e+00  2.220624e+03  2.220624e+03 0.0 0.0 9.0
21 -1 0 0 103 101  0.000000e+00  0.000000e+00 -2.792730e+03  2.792730e+03 0.0 0.0 9.0
21  1 1 2 103 102 -7.355354e+02  4.820373e+02  2.059124e+03  2.239054e+03 0.0 0.0 9.0
22  1 1 2   0   0  7.355354e+02 -4.820373e+02 -2.631230e+03  2.774300e+03 0.0 0.0 9.0
#pdf 21 21 3.416345e-01 4.296508e-01 5000.0 2.162599e-02 7.183079e-03
</event>
<event>
4 6 1.0 5000.0 7.905138e-03 7.739137e-02
21 -1 0 0 103 101  0.000000e+00  0.000000e+00  4.346583e+03  4.346583e+03 0.0 0.0 9.0
21 -1 0 0 101 102  0.000000e+00  0.000000e+00 -1.469864e+03  1.469864e+03 0.0 0.0 9.0
21  1 1 2 103 102  5.486518e+01 -2.287534e+03  2.673858e+03  3.519281e+03 0.0 0.0 9.0
22  1 1 2   0   0 -5.486518e+01  2.287534e+03  2.028611e+02  2.297166e+03 0.0 0.0 9.0
#pdf 21 21 6.687051e-01 2.261329e-01 5000.0 1.974218e-04 8.993646e-02
</event>
<event>
4 6 1.0 5000.0 7.905138e-03 7.739137e-02
21 -1 0 0 101 102  0.000000e+00  0.000000e+00  2.392100e+03  2.392100e+03 0.0 0.0 9.0
21 -1 0 0 103 101  0.000000e+00  0.000000e+00 -2.572414e+03  2.572414e+03 0.0 0.0 9.0
21  1 1 2 103 102 -1.032684e+03  5.263845e+00 -2.347086e+03  2.564230e+03 0.0 0.0 9.0
22  1 1 2   0   0  1.032684e+03 -5.263845e+00  2.166772e+03  2.400284e+03 0.0 0.0 9.0
#pdf 21 21 3.680154e-01 3.957561e-01 5000.0 1.561911e-02 1.105389e-02
</event>
<event>
4 6 1.0 5000.0 7.905138e-03 7.739137e-02
21 -1 0 0 101 102  0.000000e+00  0.000000e+00  3.064906e+03  3.064906e+03 0.0 0.0 9.0
21 -1 0 0 103 101  0.000000e+00  0.000000e+00 -1.632208e+03  1.632208e+03 0.0 0.0 9.0
21  1 1 2 103 102 -1.520832e+02 -1.670688e+03 -8.369387e+02  1.874778e+03 0.0 0.0 9.0
22  1 1 2   0   0  1.520832e+02  1.670688e+03  2.269637e+03  2.822336e+03 0.0 0.0 9.0
#pdf 21 21 4.715240e-01 2.511089e-01 5000.0 4.149539e-03 6.583005e-02
</event>
<event>
4 6 1.0 5000.0 7.905138e-03 7.739137e-02
21 -1 0 0 101 102  0.000000e+00  0.000000e+00  2.755398e+03  2.755398e+03 0.0 0.0 9.0
21 -1 0 0 103 101  0.000000e+00  0.000000e+00 -1.632997e+03  1.632997e+03 0.0 0.0 9.0
21  1 1 2 103 102 -1.919253e+03 -8.574638e+02  2.671998e+02  2.119002e+03 0.0 0.0 9.0
22  1 1 2   0   0  1.919253e+03  8.574638e+02  8.552009e+02  2.269393e+03 0.0 0.0 9.0
#pdf 21 21 4.239074e-01 2.512303e-01 5000.0 7.734003e-03 6.573125e-02
</event>
<event>
4 6 1.0 5000.0 7.905138e-03 7.739137e-02
21 -1 0 0 103 101  0.000000e+00  0.000000e+00  2.551601e+03  2.551601e+03 0.0 0.0 9.0
21 -1 0 0 101 102  0.000000e+00  0.000000e+00 -2.231553e+03  2.231553e+03 0.0 0.0 9.0
22  1 1 2   0   0  1.137378e+03 -2.035151e+03 -3.496101e+02  2.357477e+03 0.0 0.0 9.0
21  1 1 2 103 102 -1.137378e+03  2.035151e+03  6.696586e+02  2.425678e+03 0.0 0.0 9.0
#pdf 21 21 3.925540e-01 3.433158e-01 5000.0 1.150770e-02 2.118602e-02
</event>
<event>
4 6 1.0 5000.0 7.905138e-03 7.739137e-02
21 -1 0 0 103 101  0.000000e+00  0.000000e+00  2.091568e+03  2.091568e+03 0.0 0.0 9.0
21 -1 0 0 101 102  0.000000e+00  0.000000e+00 -2.963654e+03  2.963654e+03 0.0 0.0 9.0
22  1 1 2   0   0 -2.799206e+02  1.011086e+03 -2.728292e+03  2.923051e+03 0.0 0.0 9.0
21  1 1 2 103 102  2.799206e+02 -1.011086e+03  1.856207e+03  2.132171e+03 0.0 0.0 9.0
#pdf 21 21 3.217797e-01 4.559468e-01 5000.0 2.758512e-02 5.103694e-03
</event>
<event>
4 6 1.0 5000.0 7.905138e-03 7.739137e-02
21 -1 0 0 103 101  0.000000e+00  0.000000e+00  1.612019e+03  1.612019e+03 0.0 0.0 9.0
21 -1 0 0 101 102  0.000000e+00  0.000000e+00 -3.750891e+03  3.750891e+03 0.0 0.0 9.0
21  1 1 2 103 102 -4.842000e+02 -7.678485e+02 -3.561482e+03  3.675350e+03 0.0 0.0 9.0
22  1 1 2   0   0  4.842000e+02  7.678485e+02  1.422610e+03  1.687560e+03 0.0 0.0 9.0
#pdf 21 21 2.480029e-01 5.770602e-01 5000.0 6.838772e-02 9.194517e-04
</event>
<event>
4 6 1.0 5000.0 7.905138e-03 7.739137e-02
21 -1 0 0 101 102  0.000000e+00  0.000000e+00  1.089736e+03  1.089736e+03 0.0 0.0 9.0
21 -1 0 0 103 101  0.000000e+00  0.000000e+00 -4.426214e+03  4.426214e+03 0.0 0.0 9.0
22  1 1 2   0   0  1.987742e+03  6.474256e+02 -2.513565e+03  3.269294e+03 0.0 0.0 9.0
21  1 1 2 103 102 -1.987742e+03 -6.474256e+02 -8.229129e+02  2.246656e+03 0.0 0.0 9.0
#pdf 21 21 1.676517e-01 6.809560e-01 5000.0 1.938310e-01 1.568725e-04
</event>
<event>
4 6 1.0 5000.0 7.905138e-03 7.739137e-02
21 -1 0 0 101 102  0.000000e+00  0.000000e+00  3.300719e+03  3.300719e+03 0.0 0.0 9.0
21 -1 0 0 103 101  0.000000e+00  0.000000e+00 -1.345560e+03  1.345560e+03 0.0 0.0 9.0
22  1 1 2   0   0  1.142898e+03 -8.647259e+02  2.680826e+03  3.039867e+03 0.0 0.0 9.0
21  1 1 2 103 102 -1.142898e+03  8.647259e+02 -7.256674e+02  1.606412e+03 0.0 0.0 9.0
#pdf 21 21 5.078029e-01 2.070093e-01 5000.0 2.529500e-03 1.148045e-01
</event>
<event>
4 6 1.0 5000.0 7.905138e-03 7.739137e-02
21 -1 0 0 103 101  0.000000e+00  0.000000e+00  2.192038e+03  2.192038e+03 0.0 0.0 9.0
21 -1 0 0 101 102  0.000000e+00  0.000000e+00 -2.597342e+03  2.597342e+03 0.0 0.0 9.0
22  1 1 2   0   0  1.022494e+03  1.955745e+02 -2.357409e+03  2.577038e+03 0.0 0.0 9.0
21  1 1 2 103 102 -1.022494e+03 -1.955745e+02  1.952105e+03  2.212342e+03 0.0 0.0 9.0
#pdf 21 21 3.372366e-01 3.995911e-01 5000.0 2.282393e-02 1.053382e-02
</event>
<event>
4 6 1.0 5000.0 7.905138e-03 7.739137e-02
21 -1 0 0 101 102  0.000000e+00  0.000000e+00  1.998630e+03  1.998630e+03 0.0 0.0 9.0
21 -1 0 0 103 101  0.000000e+00  0.000000e+00 -3.134461e+03  3.134461e+03 0.0 0.0 9.0
21  1 1 2 103 102  5.710234e+02  2.406757e+03 -1.759977e+02  2.479823e+03 0.0 0.0 9.0
22  1 1 2   0   0 -5.710234e+02 -2.406757e+03 -9.598334e+02  2.653268e+03 0.0 0.0 9.0
#pdf 21 21 3.074815e-01 4.822248e-01 5000.0 3.290043e-02 3.592232e-03
</event>
<event>
4 6 1.0 5000.0 7.905138e-03 7.739137e-02
21 -1 0 0 101 102  0.000000e+00  0.000000e+00  3.299531e+03  3.299531e+03 0.0 0.0 9.0
21 -1 0 0 103 101  0.000000e+00  0.000000e+00 -1.869689e+03  1.869689e+03 0.0 0.0 9.0
21  1 1 2 103 102  6.484034e+02 -1.114242e+03 -1.494276e+03  1.973531e+03 0.0 0.0 9.0
22  1 1 2   0   0 -6.484034e+02  1.114242e+03  2.924119e+03  3.195690e+03 0.0 0.0 9.0
#pdf 21 21 5.076202e-01 2.876445e-01 5000.0 2.535922e-03 4.191730e-02
</event>
<event>
4 6 1.0 5000.0 7.905138e-03 7.739137e-02
21 -1 0 0 101 102  0.000000e+00  0.000000e+00  1.251446e+03  1.251446e+03 0.0 0.0 9.0
21 -1 0 0 103 101  0.000000e+00  0.000000e+00 -3.756234e+03  3.756234e+03 0.0 0.0 9.0
22  1 1 2   0   0  1.745630e+03 -9.377985e+02 -2.268417e+03  3.012044e+03 0.0 0.0 9.0
21  1 1 2 103 102 -1.745630e+03  9.377985e+02 -2.363713e+02  1.995636e+03 0.0 0.0 9.0
#pdf 21 21 1.925301e-01 5.778821e-01 5000.0 1.386952e-01 9.079036e-04
</event>
<event>
4 6 1.0 5000.0 7.905138e-03 7.739137e-02
21 -1 0 0 103 101  0.000000e+00  0.000000e+00  3.302677e+03  3.302677e+03 0.0 0.0 9.0
21 -1 0 0 101 102  0.000000e+00  0.000000e+00 -1.895784e+03  1.895784e+03 0.0 0.0 9.0
22  1 1 2   0   0  3.735507e+02  2.331191e+03 -1.576462e+02  2.366188e+03 0.0 0.0 9.0
21  1 1 2 103 102 -3.735507e+02 -2.331191e+03  1.564539e+03  2.832274e+03 0.0 0.0 9.0
#pdf 21 21 5.081042e-01 2.916591e-01 5000.0 2.518944e-03 3.992827e-02
</event>
<event>
4 6 1.0 5000.0 7.905138e-03 7.739137e-02
21 -1 0 0 101 102  0.000000e+00  0.000000e+00  4.104991e+03  4.104991e+03 0.0 0.0 9.0
21 -1 0 0 103 101  0.000000e+00  0.000000e+00 -1.435734e+03  1.435734e+03 0.0 0.0 9.0
22  1 1 2   0   0  8.872349e+02  2.114100e+03  4.237995e+02  2.331568e+03 0.0 0.0 9.0
21  1 1 2 103 102 -8.872349e+02 -2.114100e+03  2.245458e+03  3.209157e+03 0.0 0.0 9.0
#pdf 21 21 6.315372e-01 2.208821e-01 5000.0 3.815056e-04 9.618338e-02
</event>
<event>
4 6 1.0 5000.0 7.905138e-03 7.739137e-02
21 -1 0 0 103 101  0.000000e+00  0.000000e+00  2.133516e+03  2.133516e+03 0.0 0.0 9.0
21 -1 0 0 101 102  0.000000e+00  0.000000e+00 -2.317886e+03  2.317886e+03 0.0 0.0 9.0
21  1 1 2 103 102 -2.024444e+03  5.062173e+01 -1.011838e+03  2.263792e+03 0.0 0.0 9.0
22  1 1 2   0   0  2.024444e+03 -5.062173e+01  8.274680e+02  2.187611e+03 0.0 0.0 9.0
#pdf 21 21 3.282333e-01 3.565979e-01 5000.0 2.549152e-02 1.798446e-02
</event>
<event>
4 6 1.0 5000.0 7.905138e-03 7.739137e-02
21 -1 0 0 101 102  0.000000e+00  0.000000e+00  2.585481e+03  2.585481e+03 0.0 0.0 9.0
21 -1 0 0 103 101  0.000000e+00  0.000000e+00 -2.405506e+03  2.405506e+03 0.0 0.0 9.0
22  1 1 2   0   0 -8.891371e+02  6.635149e+01  2.420542e+03  2.579533e+03 0.0 0.0 9.0
21  1 1 2 103 102  8.891371e+02 -6.635149e+01 -2.240567e+03  2.411454e+03 0.0 0.0 9.0
#pdf 21 21 3.977663e-01 3.700778e-01 5000.0 1.077823e-02 1.522099e-02
</event>
<event>
4 6 1.0 5000.0 7.905138e-03 7.739137e-02
21 -1 0 0 103 101  0.000000e+00  0.000000e+00  3.420233e+03  3.420233e+03 0.0 0.0 9.0
21 -1 0 0 101 102  0.000000e+00  0.000000e+00 -1.673996e+03  1.673996e+03 0.0 0.0 9.0
21  1 1 2 103 102  3.729832e+02 -9.553878e+02  3.174390e+03  3.335961e+03 0.0 0.0 9.0
22  1 1 2   0   0 -3.729832e+02  9.553878e+02 -1.428154e+03  1.758268e+03 0.0 0.0 9.0
#pdf 21 21 5.261896e-01 2.575379e-01 5000.0 1.953096e-03 6.075449e-02
</event>
<event>
4 6 1.0 5000.0 7.905138e-03 7.739137e-02
21 -1 0 0 101 102  0.000000e+00  0.000000e+00  2.594187e+03  2.594187e+03 0.0 0.0 9.0
21 -1 0 0 103 101  0.000000e+00  0.000000e+00 -2.487042e+03  2.487042e+03 0.0 0.0 9.0
21  1 1 2 103 102  1.515208e+03 -2.389900e+02 -1.971447e+03  2.497914e+03 0.0 0.0 9.0
22  1 1 2   0   0 -1.515208e+03  2.389900e+02  2.078593e+03  2.583315e+03 0.0 0.0 9.0
#pdf 21 21 3.991057e-01 3.826218e-01 5000.0 1.059830e-02 1.304102e-02
</event>
<event>
4 6 1.0 5000.0 7.905138e-03 7.739137e-02
21 -1 0 0 103 101  0.000000e+00  0.000000e+00  2.720846e+03  2.720846e+03 0.0 0.0 9.0
21 -1 0 0 101 102  0.000000e+00  0.000000e+00 -2.216799e+03  2.216799e+03 0.0 0.0 9.0
21  1 1 2 103 102 -9.138131e+02  8.899038e+02 -1.857708e+03  2.253456e+03 0.0 0.0 9.0
22  1 1 2   0   0  9.138131e+02 -8.899038e+02  2.361756e+03  2.684190e+03 0.0 0.0 9.0
#pdf 21 21 4.185918e-01 3.410460e-01 5000.0 8.277557e-03 2.178222e-02
</event>
<event>
4 6 1.0 5000.0 7.905138e-03 7.739137e-02
21 -1 0 0 103 101  0.000000e+00  0.000000e+00  1.869068e+03  1.869068e+03 0.0 0.0 9.0
21 -1 0 0 101 102  0.000000e+00  0.000000e+00 -3.284932e+03  3.284932e+03 0.0 0.0 9.0
22  1 1 2   0   0 -2.376239e+03  5.975739e+02 -1.091689e+03  2.682422e+03 0.0 0.0 9.0
21  1 1 2 103 102  2.376239e+03 -5.975739e+02 -3.241756e+02  2.471577e+03 0.0 0.0 9.0
#pdf 21 21 2.875489e-01 5.053742e-01 5000.0 4.196586e-02 2.616139e-03
</event>
<event>
4 6 1.0 5000.0 7.905138e-03 7.739137e-02
21 -1 0 0 103 101  0.000000e+00  0.000000e+00  2.031870e+03  2.031870e+03 0.0 0.0 9.0
21 -1 0 0 101 102  0.000000e+00  0.000000e+00 -2.982487e+03  2.982487e+03 0.0 0.0 9.0
21  1 1 2 103 102  1.901566e+03 -6.051948e+02  9.927771e+02  2.228860e+03 0.0 0.0 9.0
22  1 1 2   0   0 -1.901566e+03  6.051948e+02 -1.943394e+03  2.785497e+03 0.0 0.0 9.0
#pdf 21 21 3.125954e-01 4.588442e-01 5000.0 3.088760e-02 4.910583e-03
</event>
<event>
4 6 1.0 5000.0 7.905138e-03 7.739137e-02
21 -1 0 0 101 102  0.000000e+00  0.000000e+00  2.692317e+03  2.692317e+03 0.0 0.0 9.0
21 -1 0 0 103 101  0.000000e+00  0.000000e+00 -2.180088e+03  2.180088e+03 0.0 0.0 9.0
22  1 1 2   0   0 -9.926612e+01 -1.915479e+03 -1.232192e+03  2.279739e+03 0.0 0.0 9.0
21  1 1 2 103 102  9.926612e+01  1.915479e+03  1.744421e+03  2.592666e+03 0.0 0.0 9.0
#pdf 21 21 4.142027e-01 3.353981e-01 5000.0 8.752996e-03 2.334675e-02
</event>
<event>
4 6 1.0 5000.0 7.905138e-03 7.739137e-02
21 -1 0 0 101 102  0.000000e+00  0.000000e+00  1.880862e+03  1.880862e+03 0.0 0.0 9.0
21 -1 0 0 103 101  0.000000e+00  0.000000e+00 -3.238032e+03  3.238032e+03 0.0 0.0 9.0
22  1 1 2   0   0  1.994143e+02 -2.260166e+03 -1.685267e+03  2.826348e+03 0.0 0.0 9.0
21  1 1 2 103 102 -1.994143e+02  2.260166e+03  3.280974e+02  2.292545e+03 0.0 0.0 9.0
#pdf 21 21 2.893633e-01 4.981587e-01 5000.0 4.105437e-02 2.891099e-03
</event>
<event>
4 6 1.0 5000.0 7.905138e-03 7.739137e-02
21 -1 0 0 101 102  0.000000e+00  0.000000e+00  1.646611e+03  1.646611e+03 0.0 0.0 9.0
21 -1 0 0 103 101  0.000000e+00  0.000000e+00 -3.873866e+03  3.873866e+03 0.0 0.0 9.0
22  1 1 2   0   0 -9.348287e+02 -1.708335e+03 -2.871266e+03  3.469364e+03 0.0 0.0 9.0
21  1 1 2 103 102  9.348287e+02  1.708335e+03  6.440117e+02  2.051113e+03 0.0 0.0 9.0
#pdf 21 21 2.533248e-01 5.959793e-01 5000.0 6.404357e-02 6.841513e-04
</event>
<event>
4 6 1.0 5000.0 7.905138e-03 7.739137e-02
21 -1 0 0 101 102  0.000000e+00  0.000000e+00  2.777272e+03  2.777272e+03 0.0 0.0 9.0
21 -1 0 0 103 101  0.000000e+00  0.000000e+00 -2.086922e+03  2.086922e+03 0.0 0.0 9.0
21  1 1 2 103 102 -1.437308e+03 -1.584454e+03 -7.704746e+02  2.273758e+03 0.0 0.0 9.0
22  1 1 2   0   0  1.437308e+03  1.584454e+03  1.460824e+03  2.590435e+03 0.0 0.0 9.0
#pdf 21 21 4.272725e-01 3.210649e-01 5000.0 7.406052e-03 2.782757e-02
</event>
<event>
4 6 1.0 5000.0 7.905138e-03 7.739137e-02
21 -1 0 0 103 101  0.000000e+00  0.000000e+00  1.776143e+03  1.776143e+03 0.0 0.0 9.0
21 -1 0 0 101 102  0.000000e+00  0.000000e+00 -3.245973e+03  3.245973e+03 0.0 0.0 9.0
21  1 1 2 103 102  8.770783e+02  8.938487e+02 -2.877406e+03  3.138104e+03 0.0 0.0 9.0
22  1 1 2   0   0 -8.770783e+02 -8.938487e+02  1.407576e+03  1.884012e+03 0.0 0.0 9.0
#pdf 21 21 2.732528e-01 4.993805e-01 5000.0 5.000561e-02 2.842661e-03
</event>
<event>
4 6 1.0 5000.0 7.905138e-03 7.739137e-02
21 -1 0 0 101 102  0.000000e+00  0.000000e+00  2.968546e+03  2.968546e+03 0.0 0.0 9.0
21 -1 0 0 103 101  0.000000e+00  0.000000e+00 -2.168692e+03  2.168692e+03 0.0 0.0 9.0
22  1 1 2   0   0  1.706024e+03 -1.664665e+03  1.280283e+03  2.705688e+03 0.0 0.0 9.0
21  1 1 2 103 102 -1.706024e+03  1.664665e+03 -4.804284e+02  2.431550e+03 0.0 0.0 9.0
#pdf 21 21 4.566995e-01 3.336449e-01 5000.0 5.052899e-03 2.385573e-02
</event>
<event>
4 6 1.0 5000.0 7.905138e-03 7.739137e-02
21 -1 0 0 101 102  0.000000e+00  0.000000e+00  2.883605e+03  2.883605e+03 0.0 0.0 9.0
21 -1 0 0 103 101  0.000000e+00  0.000000e+00 -2.225205e+03  2.225205e+03 0.0 0.0 9.0
21  1 1 2 103 102  2.143697e+03 -8.326793e+02 -7.417195e+02  2.416390e+03 0.0 0.0 9.0
22  1 1 2   0   0 -2.143697e+03  8.326793e+02  1.400119e+03  2.692420e+03 0.0 0.0 9.0
#pdf 21 21 4.436315e-01 3.423393e-01 5000.0 5.997000e-03 2.144043e-02
</event>
<event>
4 6 1.0 5000.0 7.905138e-03 7.739137e-02
21 -1 0 0 101 102  0.000000e+00  0.000000e+00  3.227283e+03  3.227283e+03 0.0 0.0 9.0
21 -1 0 0 103 101  0.000000e+00  0.000000e+00 -1.804382e+03  1.804382e+03 0.0 0.0 9.0
21  1 1 2 103 102  8.437246e+02  2.128458e+03 -8.325154e+01  2.291099e+03 0.0 0.0 9.0
22  1 1 2   0   0 -8.437246e+02 -2.128458e+03  1.506153e+03  2.740566e+03 0.0 0.0 9.0
#pdf 21 21 4.965051e-01 2.775972e-01 5000.0 2.957691e-03 4.740619e-02
</event>
<event>
4 6 1.0 5000.0 7.905138e-03 7.739137e-02
21 -1 0 0 101 102  0.000000e+00  0.000000e+00  2.336803e+03  2.336803e+03 0.0 0.0 9.0
21 -1 0 0 103 101  0.000000e+00  0.000000e+00 -2.504560e+03  2.504560e+03 0.0 0.0 9.0
22  1 1 2   0   0 -1.416939e+02 -1.644883e+03 -1.853258e+03  2.481992e+03 0.0 0.0 9.0
21  1 1 2 103 102  1.416939e+02  1.644883e+03  1.685502e+03  2.359371e+03 0.0 0.0 9.0
#pdf 21 21 3.595082e-01 3.853169e-01 5000.0 1.735265e-02 1.260636e-02
</event>
<event>
4 6 1.0 5000.0 7.905138e-03 7.739137e-02
21 -1 0 0 103 101  0.000000e+00  0.000000e+00  2.181657e+03  2.181657e+03 0.0 0.0 9.0
21 -1 0 0 101 102  0.000000e+00  0.000000e+00 -2.756683e+03  2.756683e+03 0.0 0.0 9.0
22  1 1 2   0   0  1.410323e+03 -3.256148e+02  1.705717e+03  2.237076e+03 0.0 0.0 9.0
21  1 1 2 103 102 -1.410323e+03  3.256148e+02 -2.280743e+03  2.701264e+03 0.0 0.0 9.0
#pdf 21 21 3.356395e-01 4.241050e-01 5000.0 2.327744e-02 7.714412e-03
</event>
<event>
4 6 1.0 5000.0 7.905138e-03 7.739137e-02
21 -1 0 0 101 102  0.000000e+00  0.000000e+00  4.423658e+03  4.423658e+03 0.0 0.0 9.0
21 -1 0 0 103 101  0.000000e+00  0.000000e+00 -1.394423e+03  1.394423e+03 0.0 0.0 9.0
22  1 1 2   0   0 -1.195413e+03 -5.068580e+02  3.994457e+03  4.200191e+03 0.0 0.0 9.0
21  1 1 2 103 102  1.195413e+03  5.068580e+02 -9.652214e+02  1.617891e+03 0.0 0.0 9.0
#pdf 21 21 6.805628e-01 2.145266e-01 5000.0 1.580356e-04 1.043342e-01
</event>
<event>
4 6 1.0 5000.0 7.905138e-03 7.739137e-02
21 -1 0 0 101 102  0.000000e+00  0.000000e+00  2.809301e+03  2.809301e+03 0.0 0.0 9.0
21 -1 0 0 103 101  0.000000e+00  0.000000e+00 -2.226545e+03  2.226545e+03 0.0 0.0 9.0
21  1 1 2 103 102 -1.162622e+03 -1.139690e+03 -1.620003e+03  2.296735e+03 0.0 0.0 9.0
22  1 1 2   0   0  1.162622e+03  1.139690e+03  2.202759e+03  2.739111e+03 0.0 0.0 9.0
#pdf 21 21 4.322001e-01 3.425454e-01 5000.0 6.952745e-03 2.138648e-02
</event>
<event>
4 6 1.0 5000.0 7.905138e-03 7.739137e-02
21 -1 0 0 101 102  0.000000e+00  0.000000e+00  2.962973e+03  2.962973e+03 0.0 0.0 9.0
21 -1 0 0 103 101  0.000000e+00  0.000000e+00 -2.072408e+03  2.072408e+03 0.0 0.0 9.0
21  1 1 2 103 102  1.436908e+03  1.031404e+02 -1.603231e+03  2.155387e+03 0.0 0.0 9.0
22  1 1 2   0   0 -1.436908e+03 -1.031404e+02  2.493796e+03  2.879994e+03 0.0 0.0 9.0
#pdf 21 21 4.558420e-01 3.188319e-01 5000.0 5.110798e-03 2.859946e-02
</event>
<event>
4 6 1.0 5000.0 7.905138e-03 7.739137e-02
21 -1 0 0 103 101  0.000000e+00  0.000000e+00  1.717268e+03  1.717268e+03 0.0 0.0 9.0
21 -1 0 0 101 102  0.000000e+00  0.000000e+00 -2.772024e+03  2.772024e+03 0.0 0.0 9.0
21  1 1 2 103 102  1.189963e+03 -7.317822e+02 -2.251587e+03  2.649748e+03 0.0 0.0 9.0
22  1 1 2   0   0 -1.189963e+03  7.317822e+02  1.196831e+03  1.839544e+03 0.0 0.0 9.0
#pdf 21 21 2.641951e-01 4.264652e-01 5000.0 5.590937e-02 7.483650e-03
</event>
<event>
4 6 1.0 5000.0 7.905138e-03 7.739137e-02
21 -1 0 0 101 102  0.000000e+00  0.000000e+00  2.737852e+03  2.737852e+03 0.0 0.0 9.0
21 -1 0 0 103 101  0.000000e+00  0.000000e+00 -1.913656e+03  1.913656e+03 0.0 0.0 9.0
21  1 1 2 103 102 -1.056138e+02 -1.493472e+03 -1.347123e+03  2.014039e+03 0.0 0.0 9.0
22  1 1 2   0   0  1.056138e+02  1.493472e+03  2.171319e+03  2.637469e+03 0.0 0.0 9.0
#pdf 21 21 4.212080e-01 2.944086e-01 5000.0 8.005899e-03 3.861227e-02
</event>
<event>
4 6 1.0 5000.0 7.905138e-03 7.739137e-02
21 -1 0 0 101 102  0.000000e+00  0.000000e+00  4.029108e+03  4.029108e+03 0.0 0.0 9.0
21 -1 0 0 103 101  0.000000e+00  0.000000e+00 -1.541127e+03  1.541127e+03 0.0 0.0 9.0
22  1 1 2   0   0 -1.416256e+03 -1.989284e+03  6.892589e+02  2.537343e+03 0.0 0.0 9.0
21  1 1 2 103 102  1.416256e+03  1.989284e+03  1.798723e+03  3.032892e+03 0.0 0.0 9.0
#pdf 21 21 6.198628e-01 2.370964e-01 5000.0 4.644694e-04 7.840469e-02
</event>
<event>
4 6 1.0 5000.0 7.905138e-03 7.739137e-02
21 -1 0 0 103 101  0.000000e+00  0.000000e+00  2.689083e+03  2.689083e+03 0.0 0.0 9.0
21 -1 0 0 101 102  0.000000e+00  0.000000e+00 -2.260879e+03  2.260879e+03 0.0 0.0 9.0
21  1 1 2 103 102  3.861557e+02 -2.430734e+03  3.633440e+02  2.487891e+03 0.0 0.0 9.0
22  1 1 2   0   0 -3.861557e+02  2.430734e+03  6.486042e+01  2.462070e+03 0.0 0.0 9.0
#pdf 21 21 4.137051e-01 3.478275e-01 5000.0 8.808562e-03 2.004811e-02
</event>
<event>
4 6 1.0 5000.0 7.905138e-03 7.739137e-02
21 -1 0 0 103 101  0.000000e+00  0.000000e+00  3.516186e+03  3.516186e+03 0.0 0.0 9.0
21 -1 0 0 101 102  0.000000e+00  0.000000e+00 -1.601985e+03  1.601985e+03 0.0 0.0 9.0
22  1 1 2   0   0 -3.458857e+02 -1.179826e+03  3.146043e+03  3.377752e+03 0.0 0.0 9.0
21  1 1 2 103 102  3.458857e+02  1.179826e+03 -1.231842e+03  1.740420e+03 0.0 0.0 9.0
#pdf 21 21 5.409518e-01 2.464593e-01 5000.0 1.577926e-03 6.967808e-02
</event>
<event>
4 6 1.0 5000.0 7.905138e-03 7.739137e-02
21 -1 0 0 103 101  0.000000e+00  0.000000e+00  2.436840e+03  2.436840e+03 0.0 0.0 9.0
21 -1 0 0 101 102  0.000000e+00  0.000000e+00 -1.958083e+03  1.958083e+03 0.0 0.0 9.0
22  1 1 2   0   0 -6.510488e+02 -8.751409e+02  2.143273e+03  2.404861e+03 0.0 0.0 9.0
21  1 1 2 103 102  6.510488e+02  8.751409e+02 -1.664516e+03  1.990063e+03 0.0 0.0 9.0
#pdf 21 21 3.748985e-01 3.012436e-01 5000.0 1.435202e-02 3.547630e-02
</event>
<event>
4 6 1.0 5000.0 7.905138e-03 7.739137e-02
21 -1 0 0 103 101  0.000000e+00  0.000000e+00  2.151768e+03  2.151768e+03 0.0 0.0 9.0
21 -1 0 0 101 102  0.000000e+00  0.000000e+00 -2.868950e+03  2.868950e+03 0.0 0.0 9.0
22  1 1 2   0   0  1.321388e+03  1.202453e+03 -2.103141e+03  2.759558e+03 0.0 0.0 9.0
21  1 1 2 103 102 -1.321388e+03 -1.202453e+03  1.385960e+03  2.261160e+03 0.0 0.0 9.0
#pdf 21 21 3.310413e-01 4.413769e-01 5000.0 2.463009e-02 6.178486e-03
</event>
<event>
4 6 1.0 5000.0 7.905138e-03 7.739137e-02
21 -1 0 0 101 102  0.000000e+00  0.000000e+00  2.150470e+03  2.150470e+03 0.0 0.0 9.0
21 -1 0 0 103 101  0.000000e+00  0.000000e+00 -2.197382e+03  2.197382e+03 0.0 0.0 9.0
21  1 1 2 103 102  9.512286e+02 -1.870510e+03  5.438166e+02  2.167805e+03 0.0 0.0 9.0
22  1 1 2   0   0 -9.512286e+02  1.870510e+03 -5.907285e+02  2.180047e+03 0.0 0.0 9.0
#pdf 21 21 3.308415e-01 3.380587e-01 5000.0 2.469045e-02 2.259444e-02
</event>
<event>
4 6 1.0 5000.0 7.905138e-03 7.739137e-02
21 -1 0 0 103 101  0.000000e+00  0.000000e+00  2.161829e+03  2.161829e+03 0.0 0.0 9.0
21 -1 0 0 101 102  0.000000e+00  0.000000e+00 -3.321164e+03  3.321164e+03 0.0 0.0 9.0
22  1 1 2   0   0 -3.643169e+02  8.730148e+02 -3.144632e+03  3.283838e+03 0.0 0.0 9.0
21  1 1 2 103 102  3.643169e+02 -8.730148e+02  1.985297e+03  2.199156e+03 0.0 0.0 9.0
#pdf 21 21 3.325891e-01 5.109483e-01 5000.0 2.416702e-02 2.421254e-03
</event>
<event>
4 6 1.0 5000.0 7.905138e-03 7.739137e-02
21 -1 0 0 101 102  0.000000e+00  0.000000e+00  2.430417e+03  2.430417e+03 0.0 0.0 9.0
21 -1 0 0 103 101  0.000000e+00  0.000000e+00 -2.643578e+03  2.643578e+03 0.0 0.0 9.0
21  1 1 2 103 102  4.812992e+02 -2.486044e+03  7.246017e+00  2.532215e+03 0.0 0.0 9.0
22  1 1 2   0   0 -4.812992e+02  2.486044e+03 -2.204071e+02  2.541779e+03 0.0 0.0 9.0
#pdf 21 21 3.739103e-01 4.067043e-01 5000.0 1.452590e-02 9.629299e-03
</event>
<event>
4 6 1.0 5000.0 7.905138e-03 7.739137e-02
21 -1 0 0 103 101  0.000000e+00  0.000000e+00  2.768581e+03  2.768581e+03 0.0 0.0 9.0
21 -1 0 0 101 102  0.000000e+00  0.000000e+00 -2.396386e+03  2.396386e+03 0.0 0.0 9.0
22  1 1 2   0   0  2.163672e+03  4.431230e+02  1.514978e+03  2.678245e+03 0.0 0.0 9.0
21  1 1 2 103 102 -2.163672e+03 -4.431230e+02 -1.142783e+03  2.486722e+03 0.0 0.0 9.0
#pdf 21 21 4.259356e-01 3.686747e-01 5000.0 7.534937e-03 1.549008e-02
</event>
<event>
4 6 1.0 5000.0 7.905138e-03 7.739137e-02
21 -1 0 0 103 101  0.000000e+00  0.000000e+00  2.491491e+03  2.491491e+03 0.0 0.0 9.0
21 -1 0 0 101 102  0.000000e+00  0.000000e+00 -2.368963e+03  2.368963e+03 0.0 0.0 9.0
21  1 1 2 103 102 -1.676911e+03  1.600377e+03  7.888289e+02  2.448568e+03 0.0 0.0 9.0
22  1 1 2   0   0  1.676911e+03 -1.600377e+03 -6.663012e+02  2.411886e+03 0.0 0.0 9.0
#pdf 21 21 3.833063e-01 3.644559e-01 5000.0 1.292940e-02 1.633033e-02
</event>
<event>
4 6 1.0 5000.0 7.905138e-03 7.739137e-02
21 -1 0 0 103 101  0.000000e+00  0.000000e+00  2.912289e+03  2.912289e+03 0.0 0.0 9.0
21 -1 0 0 101 102  0.000000e+00  0.000000e+00 -1.926125e+03  1.926125e+03 0.0 0.0 9.0
22  1 1 2   0   0 -1.816096e+03  7.354847e+02  1.852133e+03  2.696208e+03 0.0 0.0 9.0
21  1 1 2 103 102  1.816096e+03 -7.354847e+02 -8.659700e+02  2.142206e+03 0.0 0.0 9.0
#pdf 21 21 4.480444e-01 2.963270e-01 5000.0 5.657106e-03 3.771054e-02
</event>
<event>
4 6 1.0 5000.0 7.905138e-03 7.739137e-02
21 -1 0 0 101 102  0.000000e+00  0.000000e+00  2.945744e+03  2.945744e+03 0.0 0.0 9.0
21 -1 0 0 103 101  0.000000e+00  0.000000e+00 -2.242835e+03  2.242835e+03 0.0 0.0 9.0
22  1 1 2   0   0  2.261571e+02  2.282807e+03  1.521753e+03  2.752832e+03 0.0 0.0 9.0
21  1 1 2 103 102 -2.261571e+02 -2.282807e+03 -8.188444e+02  2.435746e+03 0.0 0.0 9.0
#pdf 21 21 4.531914e-01 3.450516e-01 5000.0 5.292914e-03 2.074125e-02
</event>
<event>
4 6 1.0 5000.0 7.905138e-03 7.739137e-02
21 -1 0 0 101 102  0.000000e+00  0.000000e+00  2.917286e+03  2.917286e+03 0.0 0.0 9.0
21 -1 0 0 103 101  0.000000e+00  0.000000e+00 -2.275440e+03  2.275440e+03 0.0 0.0 9.0
21  1 1 2 103 102  1.982121e+03 -1.056875e+03 -9.507007e+02  2.439184e+03 0.0 0.0 9.0
22  1 1 2   0   0 -1.982121e+03  1.056875e+03  1.592547e+03  2.753542e+03 0.0 0.0 9.0
#pdf 21 21 4.488132e-01 3.500677e-01 5000.0 5.601773e-03 1.950347e-02
</event>
<event>
4 6 1.0 5000.0 7.905138e-03 7.739137e-02
21 -1 0 0 103 101  0.000000e+00  0.000000e+00  1.758260e+03  1.758260e+03 0.0 0.0 9.0
21 -1 0 0 101 102  0.000000e+00  0.000000e+00 -2.678661e+03  2.678661e+03 0.0 0.0 9.0
21  1 1 2 103 102 -8.824210e+02  9.999474e+02 -2.210351e+03  2.581514e+03 0.0 0.0 9.0
22  1 1 2   0   0  8.824210e+02 -9.999474e+02  1.289950e+03  1.855407e+03 0.0 0.0 9.0
#pdf 21 21 2.705015e-01 4.121016e-01 5000.0 5.172543e-02 8.990058e-03
</event>
<event>
4 6 1.0 5000.0 7.905138e-03 7.739137e-02
21 -1 0 0 103 101  0.000000e+00  0.000000e+00  2.103193e+03  2.103193e+03 0.0 0.0 9.0
21 -1 0 0 101 102  0.000000e+00  0.000000e+00 -2.995561e+03  2.995561e+03 0.0 0.0 9.0
21  1 1 2 103 102 -6.811947e+02 -8.074551e+02  1.866401e+03  2.144635e+03 0.0 0.0 9.0
22  1 1 2   0   0  6.811947e+02  8.074551e+02 -2.758769e+03  2.954119e+03 0.0 0.0 9.0
#pdf 21 21 3.235681e-01 4.608556e-01 5000.0 2.698811e-02 4.780736e-03
</event>
<event>
4 6 1.0 5000.0 7.905138e-03 7.739137e-02
21 -1 0 0 101 102  0.000000e+00  0.000000e+00  2.934309e+03  2.934309e+03 0.0 0.0 9.0
21 -1 0 0 103 101  0.000000e+00  0.000000e+00 -2.034989e+03  2.034989e+03 0.0 0.0 9.0
22  1 1 2   0   0 -8.484040e+02 -1.926100e+03 -8.128121e+02  2.256173e+03 0.0 0.0 9.0
21  1 1 2 103 102  8.484040e+02  1.926100e+03  1.712132e+03  2.713125e+03 0.0 0.0 9.0
#pdf 21 21 4.514321e-01 3.130752e-01 5000.0 5.416010e-03 3.070455e-02
</event>
<event>
4 6 1.0 5000.0 7.905138e-03 7.739137e-02
21 -1 0 0 101 102  0.000000e+00  0.000000e+00  2.111071e+03  2.111071e+03 0.0 0.0 9.0
21 -1 0 0 103 101  0.000000e+00  0.000000e+00 -2.811465e+03  2.811465e+03 0.0 0.0 9.0
22  1 1 2   0   0 -7.662841e+02  9.904870e+02  1.761006e+03  2.160879e+03 0.0 0.0 9.0
21  1 1 2 103 102  7.662841e+02 -9.904870e+02 -2.461400e+03  2.761657e+03 0.0 0.0 9.0
#pdf 21 21 3.247801e-01 4.325331e-01 5000.0 2.659104e-02 6.923263e-03
</event>
<event>
4 6 1.0 5000.0 7.905138e-03 7.739137e-02
21 -1 0 0 103 101  0.000000e+00  0.000000e+00  2.594769e+03  2.594769e+03 0.0 0.0 9.0
21 -1 0 0 101 102  0.000000e+00  0.000000e+00 -2.001985e+03  2.001985e+03 0.0 0.0 9.0
21  1 1 2 103 102  2.134017e+03  5.746881e+02  8.582122e+02  2.370828e+03 0.0 0.0 9.0
22  1 1 2   0   0 -2.134017e+03 -5.746881e+02 -2.654283e+02  2.225926e+03 0.0 0.0 9.0
#pdf 21 21 3.991952e-01 3.079977e-01 5000.0 1.058639e-02 3.269260e-02
</event>
<event>
4 6 1.0 5000.0 7.905138e-03 7.739137e-02
21 -1 0 0 103 101  0.000000e+00  0.000000e+00  2.778601e+03  2.778601e+03 0.0 0.0 9.0
21 -1 0 0 101 102  0.000000e+00  0.000000e+00 -1.745378e+03  1.745378e+03 0.0 0.0 9.0
21  1 1 2 103 102 -1.953661e+03  5.136029e+02 -3.841975e+02  2.056255e+03 0.0 0.0 9.0
22  1 1 2   0   0  1.953661e+03 -5.136029e+02  1.417420e+03  2.467723e+03 0.0 0.0 9.0
#pdf 21 21 4.274770e-01 2.685197e-01 5000.0 7.386547e-03 5.300255e-02
</event>
<event>
4 6 1.0 5000.0 7.905138e-03 7.739137e-02
21 -1 0 0 103 101  0.000000e+00  0.000000e+00  2.240157e+03  2.240157e+03 0.0 0.0 9.0
21 -1 0 0 101 102  0.000000e+00  0.000000e+00 -2.753001e+03  2.753001e+03 0.0 0.0 9.0
22  1 1 2   0   0  5.558234e+02 -1.104906e+03 -2.421333e+03  2.718936e+03 0.0 0.0 9.0
21  1 1 2 103 102 -5.558234e+02  1.104906e+03  1.908489e+03  2.274222e+03 0.0 0.0 9.0
#pdf 21 21 3.446395e-01 4.235387e-01 5000.0 2.084599e-02 7.770662e-03
</event>
<event>
4 6 1.0 5000.0 7.905138e-03 7.739137e-02
21 -1 0 0 103 101  0.000000e+00  0.000000e+00  2.461466e+03  2.461466e+03 0.0 0.0 9.0
21 -1 0 0 101 102  0.000000e+00  0.000000e+00 -2.528617e+03  2.528617e+03 0.0 0.0 9.0
21  1 1 2 103 102 -2.180490e+03 -7.799116e+02  8.945738e+02  2.482551e+03 0.0 0.0 9.0
22  1 1 2   0   0  2.180490e+03  7.799116e+02 -9.617248e+02  2.507531e+03 0.0 0.0 9.0
#pdf 21 21 3.786871e-01 3.890180e-01 5000.0 1.369766e-02 1.203150e-02
</event>
<event>
4 6 1.0 5000.0 7.905138e-03 7.739137e-02
21 -1 0 0 101 102  0.000000e+00  0.000000e+00  1.989530e+03  1.989530e+03 0.0 0.0 9.0
21 -1 0 0 103 101  0.000000e+00  0.000000e+00 -2.852263e+03  2.852263e+03 0.0 0.0 9.0
22  1 1 2   0   0  2.281959e+02  2.367870e+03 -5.590175e+02  2.443642e+03 0.0 0.0 9.0
21  1 1 2 103 102 -2.281959e+02 -2.367870e+03 -3.037158e+02  2.398151e+03 0.0 0.0 9.0
#pdf 21 21 3.060815e-01 4.388097e-01 5000.0 3.346878e-02 6.388362e-03
</event>
<event>
4 6 1.0 5000.0 7.905138e-03 7.739137e-02
21 -1 0 0 101 102  0.000000e+00  0.000000e+00  3.701327e+03  3.701327e+03 0.0 0.0 9.0
21 -1 0 0 103 101  0.000000e+00  0.000000e+00 -1.731639e+03  1.731639e+03 0.0 0.0 9.0
21  1 1 2 103 102  2.238276e+03  1.059196e+03  4.195198e+02  2.511528e+03 0.0 0.0 9.0
22  1 1 2   0   0 -2.238276e+03 -1.059196e+03  1.550168e+03  2.921437e+03 0.0 0.0 9.0
#pdf 21 21 5.694349e-01 2.664060e-01 5000.0 1.033822e-03 5.440201e-02
</event>
<event>
4 6 1.0 5000.0 7.905138e-03 7.739137e-02
21 -1 0 0 101 102  0.000000e+00  0.000000e+00  1.814600e+03  1.814600e+03 0.0 0.0 9.0
21 -1 0 0 103 101  0.000000e+00  0.000000e+00 -3.103550e+03  3.103550e+03 0.0 0.0 9.0
21  1 1 2 103 102 -2.105552e+03  1.080161e+03 -8.286846e+02  2.507352e+03 0.0 0.0 9.0
22  1 1 2   0   0  2.105552e+03 -1.080161e+03 -4.602654e+02  2.410797e+03 0.0 0.0 9.0
#pdf 21 21 2.791692e-01 4.774692e-01 5000.0 4.649817e-02 3.831234e-03
</event>
<event>
4 6 1.0 5000.0 7.905138e-03 7.739137e-02
21 -1 0 0 101 102  0.000000e+00  0.000000e+00  2.672007e+03  2.672007e+03 0.0 0.0 9.0
21 -1 0 0 103 101  0.000000e+00  0.000000e+00 -2.356267e+03  2.356267e+03 0.0 0.0 9.0
22  1 1 2   0   0  1.166893e+03 -1.275904e+03  1.979814e+03  2.628542e+03 0.0 0.0 9.0
21  1 1 2 103 102 -1.166893e+03  1.275904e+03 -1.664075e+03  2.399732e+03 0.0 0.0 9.0
#pdf 21 21 4.110780e-01 3.625027e-01 5000.0 9.107923e-03 1.672781e-02
</event>
<event>
4 6 1.0 5000.0 7.905138e-03 7.739137e-02
21 -1 0 0 101 102  0.000000e+00  0.000000e+00  2.250606e+03  2.250606e+03 0.0 0.0 9.0
21 -1 0 0 103 101  0.000000e+00  0.000000e+00 -2.536792e+03  2.536792e+03 0.0 0.0 9.0
21  1 1 2 103 102 -1.404904e+03  5.103363e+02 -2.010601e+03  2.505337e+03 0.0 0.0 9.0
22  1 1 2   0   0  1.404904e+03 -5.103363e+02  1.724415e+03  2.282061e+03 0.0 0.0 9.0
#pdf 21 21 3.462471e-01 3.902757e-01 5000.0 2.044010e-02 1.184232e-02
</event>
<event>
4 6 1.0 5000.0 7.905138e-03 7.739137e-02
21 -1 0 0 103 101  0.000000e+00  0.000000e+00  3.224991e+03  3.224991e+03 0.0 0.0 9.0
21 -1 0 0 101 102  0.000000e+00  0.000000e+00 -3.463413e+03  3.463413e+03 0.0 0.0 9.0
22  1 1 2   0   0  2.568530e+03 -4.118303e+02 -2.218765e+03  3.419045e+03 0.0 0.0 9.0
21  1 1 2 103 102 -2.568530e+03  4.118303e+02  1.980343e+03  3.269359e+03 0.0 0.0 9.0
#pdf 21 21 4.961525e-01 5.328328e-01 5000.0 2.972049e-03 1.776209e-03
</event>
<event>
4 6 1.0 5000.0 7.905138e-03 7.739137e-02
21 -1 0 0 103 101  0.000000e+00  0.000000e+00  2.956650e+03  2.956650e+03 0.0 0.0 9.0
21 -1 0 0 101 102  0.000000e+00  0.000000e+00 -1.600342e+03  1.600342e+03 0.0 0.0 9.0
21  1 1 2 103 102  1.973950e+03 -4.995392e+02 -1.234426e+02  2.039915e+03 0.0 0.0 9.0
22  1 1 2   0   0 -1.973950e+03  4.995392e+02  1.479750e+03  2.517077e+03 0.0 0.0 9.0
#pdf 21 21 4.548692e-01 2.462065e-01 5000.0 5.177111e-03 6.989041e-02
</event>
<event>
4 6 1.0 5000.0 7.905138e-03 7.739137e-02
21 -1 0 0 101 102  0.000000e+00  0.000000e+00  2.378479e+03  2.378479e+03 0.0 0.0 9.0
21 -1 0 0 103 101  0.000000e+00  0.000000e+00 -2.268002e+03  2.268002e+03 0.0 0.0 9.0
21  1 1 2 103 102  1.490675e+03  1.743518e+03 -3.087720e+02  2.314586e+03 0.0 0.0 9.0
22  1 1 2   0   0 -1.490675e+03 -1.743518e+03  4.192490e+02  2.331895e+03 0.0 0.0 9.0
#pdf 21 21 3.659198e-01 3.489234e-01 5000.0 1.603613e-02 1.978013e-02
</event>
<event>
4 6 1.0 5000.0 7.905138e-03 7.739137e-02
21 -1 0 0 101 102  0.000000e+00  0.000000e+00  3.583363e+03  3.583363e+03 0.0 0.0 9.0
21 -1 0 0 103 101  0.000000e+00  0.000000e+00 -1.632718e+03  1.632718e+03 0.0 0.0 9.0
21  1 1 2 103 102 -1.823148e+03 -1.412238e+03  1.762017e+03  2.902238e+03 0.0 0.0 9.0
22  1 1 2   0   0  1.823148e+03  1.412238e+03  1.886279e+02  2.313842e+03 0.0 0.0 9.0
#pdf 21 21 5.512865e-01 2.511874e-01 5000.0 1.355496e-03 6.576618e-02
</event>
<event>
4 6 1.0 5000.0 7.905138e-03 7.739137e-02
21 -1 0 0 103 101  0.000000e+00  0.000000e+00  2.873503e+03  2.873503e+03 0.0 0.0 9.0
21 -1 0 0 101 102  0.000000e+00  0.000000e+00 -2.145289e+03  2.145289e+03 0.0 0.0 9.0
21  1 1 2 103 102 -8.088633e+02 -2.204602e+03  1.178934e+03  2.627625e+03 0.0 0.0 9.0
22  1 1 2   0   0  8.088633e+02  2.204602e+03 -4.507200e+02  2.391166e+03 0.0 0.0 9.0
#pdf 21 21 4.420773e-01 3.300444e-01 5000.0 6.121860e-03 2.493270e-02
</event>
<event>
4 6 1.0 5000.0 7.905138e-03 7.739137e-02
21 -1 0 0 101 102  0.000000e+00  0.000000e+00  2.834554e+03  2.834554e+03 0.0 0.0 9.0
21 -1 0 0 103 101  0.000000e+00  0.000000e+00 -2.189593e+03  2.189593e+03 0.0 0.0 9.0
22  1 1 2   0   0  1.832742e+03 -3.966298e+02 -1.331404e+03  2.299760e+03 0.0 0.0 9.0
21  1 1 2 103 102 -1.832742e+03  3.966298e+02  1.976366e+03  2.724386e+03 0.0 0.0 9.0
#pdf 21 21 4.360852e-01 3.368604e-01 5000.0 6.616127e-03 2.292984e-02
</event>
<event>
4 6 1.0 5000.0 7.905138e-03 7.739137e-02
21 -1 0 0 103 101  0.000000e+00  0.000000e+00  2.770714e+03  2.770714e+03 0.0 0.0 9.0
21 -1 0 0 101 102  0.000000e+00  0.000000e+00 -2.278826e+03  2.278826e+03 0.0 0.0 9.0
22  1 1 2   0   0 -1.612661e+03 -1.289344e+03 -1.192993e+03  2.384600e+03 0.0 0.0 9.0
21  1 1 2 103 102  1.612661e+03  1.289344e+03  1.684881e+03  2.664940e+03 0.0 0.0 9.0
#pdf 21 21 4.262637e-01 3.505886e-01 5000.0 7.503130e-03 1.937855e-02
</event>
<event>
4 6 1.0 5000.0 7.905138e-03 7.739137e-02
21 -1 0 0 103 101  0.000000e+00  0.000000e+00  3.928772e+03  3.928772e+03 0.0 0.0 9.0
21 -1 0 0 101 102  0.000000e+00  0.000000e+00 -1.590788e+03  1.590788e+03 0.0 0.0 9.0
22  1 1 2   0   0 -1.530358e+03  1.912619e+03  1.720665e+03  2.993459e+03 0.0 0.0 9.0
21  1 1 2 103 102  1.530358e+03 -1.912619e+03  6.173184e+02  2.526102e+03 0.0 0.0 9.0
#pdf 21 21 6.044264e-01 2.447367e-01 5000.0 5.980138e-04 7.120167e-02
</event>
<event>
4 6 1.0 5000.0 7.905138e-03 7.739137e-02
21 -1 0 0 101 102  0.000000e+00  0.000000e+00  3.301997e+03  3.301997e+03 0.0 0.0 9.0
21 -1 0 0 103 101  0.000000e+00  0.000000e+00 -1.873954e+03  1.873954e+03 0.0 0.0 9.0
21  1 1 2 103 102 -1.461392e+03  1.988250e+03  1.041339e+03  2.678282e+03 0.0 0.0 9.0
22  1 1 2   0   0  1.461392e+03 -1.988250e+03  3.867032e+02  2.497668e+03 0.0 0.0 9.0
#pdf 21 21 5.079995e-01 2.883006e-01 5000.0 2.522608e-03 4.158572e-02
</event>
<event>
4 6 1.0 5000.0 7.905138e-03 7.739137e-02
21 -1 0 0 101 102  0.000000e+00  0.000000e+00  4.740024e+03  4.740024e+03 0.0 0.0 9.0
21 -1 0 0 103 101  0.000000e+00  0.000000e+00 -1.257909e+03  1.257909e+03 0.0 0.0 9.0
21  1 1 2 103 102 -9.715320e+02  1.808679e+03  3.364526e+03  3.941475e+03 0.0 0.0 9.0
22  1 1 2   0   0  9.715320e+02 -1.808679e+03  1.175888e+02  2.056458e+03 0.0 0.0 9.0
#pdf 21 21 7.292345e-01 1.935245e-01 5000.0 5.879827e-05 1.368838e-01
</event>
<event>
4 6 1.0 5000.0 7.905138e-03 7.739137e-02
21 -1 0 0 101 102  0.000000e+00  0.000000e+00  1.958722e+03  1.958722e+03 0.0 0.0 9.0
21 -1 0 0 103 101  0.000000e+00  0.000000e+00 -3.247196e+03  3.247196e+03 0.0 0.0 9.0
22  1 1 2   0   0  8.218175e+02 -1.877976e+03 -2.160485e+03  2.978233e+03 0.0 0.0 9.0
21  1 1 2 103 102 -8.218175e+02  1.877976e+03  8.720111e+02  2.227685e+03 0.0 0.0 9.0
#pdf 21 21 3.013418e-01 4.995686e-01 5000.0 3.543498e-02 2.835259e-03
</event>
<event>
4 6 1.0 5000.0 7.905138e-03 7.739137e-02
21 -1 0 0 103 101  0.000000e+00  0.000000e+00  3.727404e+03  3.727404e+03 0.0 0.0 9.0
21 -1 0 0 101 102  0.000000e+00  0.000000e+00 -1.657823e+03  1.657823e+03 0.0 0.0 9.0
21  1 1 2 103 102 -9.311025e+02 -1.596046e+03  2.835959e+03  3.384815e+03 0.0 0.0 9.0
22  1 1 2   0   0  9.311025e+02  1.596046e+03 -7.663774e+02  2.000412e+03 0.0 0.0 9.0
#pdf 21 21 5.734468e-01 2.550497e-01 5000.0 9.719529e-04 6.267866e-02
</event>
<event>
4 6 1.0 5000.0 7.905138e-03 7.739137e-02
21 -1 0 0 103 101  0.000000e+00  0.000000e+00  2.654404e+03  2.654404e+03 0.0 0.0 9.0
21 -1 0 0 101 102  0.000000e+00  0.000000e+00 -2.244489e+03  2.244489e+03 0.0 0.0 9.0
22  1 1 2   0   0 -2.138581e+03 -1.378575e+02  1.377507e+03  2.547560e+03 0.0 0.0 9.0
21  1 1 2 103 102  2.138581e+03  1.378575e+02 -9.675920e+02  2.351333e+03 0.0 0.0 9.0
#pdf 21 21 4.083699e-01 3.453060e-01 5000.0 9.427575e-03 2.067681e-02
</event>
<event>
4 6 1.0 5000.0 7.905138e-03 7.739137e-02
21 -1 0 0 103 101  0.000000e+00  0.000000e+00  2.321608e+03  2.321608e+03 0.0 0.0 9.0
21 -1 0 0 101 102  0.000000e+00  0.000000e+00 -1.964550e+03  1.964550e+03 0.0 0.0 9.0
21  1 1 2 103 102 -4.173955e+02 -2.088418e+03  1.920558e+01  2.129807e+03 0.0 0.0 9.0
22  1 1 2   0   0  4.173955e+02  2.088418e+03  3.378520e+02  2.156352e+03 0.0 0.0 9.0
#pdf 21 21 3.571705e-01 3.022385e-01 5000.0 1.785788e-02 3.505876e-02
</event>
<event>
4 6 1.0 5000.0 7.905138e-03 7.739137e-02
21 -1 0 0 103 101  0.000000e+00  0.000000e+00  2.010409e+03  2.010409e+03 0.0 0.0 9.0
21 -1 0 0 101 102  0.000000e+00  0.000000e+00 -2.801652e+03  2.801652e+03 0.0 0.0 9.0
21  1 1 2 103 102  1.594053e+03 -1.255382e+03  8.524133e+02  2.200817e+03 0.0 0.0 9.0
22  1 1 2   0   0 -1.594053e+03  1.255382e+03 -1.643656e+03  2.611243e+03 0.0 0.0 9.0
#pdf 21 21 3.092937e-01 4.310233e-01 5000.0 3.217509e-02 7.058035e-03
</event>
<event>
4 6 1.0 5000.0 7.905138e-03 7.739137e-02
21 -1 0 0 101 102  0.000000e+00  0.000000e+00  3.769014e+03  3.769014e+03 0.0 0.0 9.0
21 -1 0 0 103 101  0.000000e+00  0.000000e+00 -1.627852e+03  1.627852e+03 0.0 0.0 9.0
22  1 1 2   0   0  2.387337e+03 -5.404775e+02  1.483840e+03  2.862390e+03 0.0 0.0 9.0
21  1 1 2 103 102 -2.387337e+03  5.404775e+02  6.573214e+02  2.534475e+03 0.0 0.0 9.0
#pdf 21 21 5.798482e-01 2.504387e-01 5000.0 8.808396e-04 6.637699e-02
</event>
<event>
4 6 1.0 5000.0 7.905138e-03 7.739137e-02
21 -1 0 0 103 101  0.000000e+00  0.000000e+00  2.335103e+03  2.335103e+03 0.0 0.0 9.0
21 -1 0 0 101 102  0.000000e+00  0.000000e+00 -2.557580e+03  2.557580e+03 0.0 0.0 9.0
22  1 1 2   0   0  8.440755e+02  1.684422e+03  1.446802e+03  2.375495e+03 0.0 0.0 9.0
21  1 1 2 103 102 -8.440755e+02 -1.684422e+03 -1.669279e+03  2.517188e+03 0.0 0.0 9.0
#pdf 21 21 3.592466e-01 3.934739e-01 5000.0 1.740834e-02 1.137542e-02
</event>
<event>
4 6 1.0 5000.0 7.905138e-03 7.739137e-02
21 -1 0 0 101 102  0.000000e+00  0.000000e+00  1.232719e+03  1.232719e+03 0.0 0.0 9.0
21 -1 0 0 103 101  0.000000e+00  0.000000e+00 -4.675193e+03  4.675193e+03 0.0 0.0 9.0
22  1 1 2   0   0 -8.684543e+02  2.217156e+03 -1.345577e+03  2.735063e+03 0.0 0.0 9.0
21  1 1 2 103 102  8.684543e+02 -2.217156e+03 -2.096897e+03  3.172849e+03 0.0 0.0 9.0
#pdf 21 21 1.896491e-01 7.192604e-01 5000.0 1.441664e-01 7.280514e-05
</event>
<event>
4 6 1.0 5000.0 7.905138e-03 7.739137e-02
21 -1 0 0 103 101  0.000000e+00  0.000000e+00  2.432018e+03  2.432018e+03 0.0 0.0 9.0
21 -1 0 0 101 102  0.000000e+00  0.000000e+00 -2.664156e+03  2.664156e+03 0.0 0.0 9.0
22  1 1 2   0   0  2.448149e+03 -5.947880e+02 -4.798635e+02  2.564659e+03 0.0 0.0 9.0
21  1 1 2 103 102 -2.448149e+03  5.947880e+02  2.477254e+02  2.531516e+03 0.0 0.0 9.0
#pdf 21 21 3.741567e-01 4.098702e-01 5000.0 1.448243e-02 9.249062e-03
</event>
<event>
4 6 1.0 5000.0 7.905138e-03 7.739137e-02
21 -1 0 0 101 102  0.000000e+00  0.000000e+00  1.922993e+03  1.922993e+03 0.0 0.0 9.0
21 -1 0 0 103 101  0.000000e+00  0.000000e+00 -3.292350e+03  3.292350e+03 0.0 0.0 9.0
22  1 1 2   0   0  3.976008e+02 -1.035932e+03  1.655737e+03  1.993165e+03 0.0 0.0 9.0
21  1 1 2 103 102 -3.976008e+02  1.035932e+03 -3.025094e+03  3.222178e+03 0.0 0.0 9.0
#pdf 21 21 2.958451e-01 5.065154e-01 5000.0 3.793596e-02 2.575085e-03
</event>
<event>
4 6 1.0 5000.0 7.905138e-03 7.739137e-02
21 -1 0 0 101 102  0.000000e+00  0.000000e+00  2.027283e+03  2.027283e+03 0.0 0.0 9.0
21 -1 0 0 103 101  0.000000e+00  0.000000e+00 -2.801243e+03  2.801243e+03 0.0 0.0 9.0
22  1 1 2   0   0 -2.124041e+03  8.603423e+02 -1.049127e+03  2.520398e+03 0.0 0.0 9.0
21  1 1 2 103 102  2.124041e+03 -8.603423e+02  2.751671e+02  2.308128e+03 0.0 0.0 9.0
#pdf 21 21 3.118898e-01 4.309605e-01 5000.0 3.115877e-02 7.063702e-03
</event>
<event>
4 6 1.0 5000.0 7.905138e-03 7.739137e-02
21 -1 0 0 101 102  0.000000e+00  0.000000e+00  2.462415e+03  2.462415e+03 0.0 0.0 9.0
21 -1 0 0 103 101  0.000000e+00  0.000000e+00 -2.433558e+03  2.433558e+03 0.0 0.0 9.0
22  1 1 2   0   0 -1.606174e+03  1.468977e+03  1.134599e+03  2.454589e+03 0.0 0.0 9.0
21  1 1 2 103 102  1.606174e+03 -1.468977e+03 -1.105742e+03  2.441384e+03 0.0 0.0 9.0
#pdf 21 21 3.788330e-01 3.743936e-01 5000.0 1.367286e-02 1.444071e-02
</event>
<event>
4 6 1.0 5000.0 7.905138e-03 7.739137e-02
21 -1 0 0 103 101  0.000000e+00  0.000000e+00  1.760066e+03  1.760066e+03 0.0 0.0 9.0
21 -1 0 0 101 102  0.000000e+00  0.000000e+00 -3.548837e+03  3.548837e+03 0.0 0.0 9.0
22  1 1 2   0   0  5.215852e+02 -1.616006e+03 -2.842026e+03  3.310685e+03 0.0 0.0 9.0
21  1 1 2 103 102 -5.215852e+02  1.616006e+03  1.053255e+03  1.998217e+03 0.0 0.0 9.0
#pdf 21 21 2.707793e-01 5.459749e-01 5000.0 5.154902e-02 1.467008e-03
</event>
<event>
4 6 1.0 5000.0 7.905138e-03 7.739137e-02
21 -1 0 0 101 102  0.000000e+00  0.000000e+00  2.262344e+03  2.262344e+03 0.0 0.0 9.0
21 -1 0 0 103 101  0.000000e+00  0.000000e+00 -2.808535e+03  2.808535e+03 0.0 0.0 9.0
21  1 1 2 103 102  1.360345e+03 -9.131926e+02  1.653685e+03  2.327903e+03 0.0 0.0 9.0
22  1 1 2   0   0 -1.360345e+03  9.131926e+02 -2.199876e+03  2.742975e+03 0.0 0.0 9.0
#pdf 21 21 3.480529e-01 4.320822e-01 5000.0 1.999274e-02 6.963219e-03
</event>
<event>
4 6 1.0 5000.0 7.905138e-03 7.739137e-02
21 -1 0 0 101 102  0.000000e+00  0.000000e+00  1.795928e+03  1.795928e+03 0.0 0.0 9.0
21 -1 0 0 103 101  0.000000e+00  0.000000e+00 -3.409751e+03  3.409751e+03 0.0 0.0 9.0
21  1 1 2 103 102 -8.102742e+02  1.399576e+03  1.163199e+03  1.992081e+03 0.0 0.0 9.0
22  1 1 2   0   0  8.102742e+02 -1.399576e+03 -2.777022e+03  3.213598e+03 0.0 0.0 9.0
#pdf 21 21 2.762966e-01 5.245771e-01 5000.0 4.817023e-02 1.998159e-03
</event>
<event>
4 6 1.0 5000.0 7.905138e-03 7.739137e-02
21 -1 0 0 101 102  0.000000e+00  0.000000e+00  2.911403e+03  2.911403e+03 0.0 0.0 9.0
21 -1 0 0 103 101  0.000000e+00  0.000000e+00 -2.124524e+03  2.124524e+03 0.0 0.0 9.0
21  1 1 2 103 102 -8.016414e+02  1.805411e+03  1.923260e+03  2.757003e+03 0.0 0.0 9.0
22  1 1 2   0   0  8.016414e+02 -1.805411e+03 -1.136381e+03  2.278925e+03 0.0 0.0 9.0
#pdf 21 21 4.479082e-01 3.268499e-01 5000.0 5.667003e-03 2.592651e-02
</event>
<event>
4 6 1.0 5000.0 7.905138e-03 7.739137e-02
21 -1 0 0 101 102  0.000000e+00  0.000000e+00  2.668493e+03  2.668493e+03 0.0 0.0 9.0
21 -1 0 0 103 101  0.000000e+00  0.000000e+00 -2.804322e+03  2.804322e+03 0.0 0.0 9.0
22  1 1 2   0   0 -8.463455e+02  2.510836e+03 -7.483538e+02  2.753295e+03 0.0 0.0 9.0
21  1 1 2 103 102  8.463455e+02 -2.510836e+03  6.125248e+02  2.719519e+03 0.0 0.0 9.0
#pdf 21 21 4.105373e-01 4.314341e-01 5000.0 9.170825e-03 7.021089e-03
</event>
<event>
4 6 1.0 5000.0 7.905138e-03 7.739137e-02
21 -1 0 0 103 101  0.000000e+00  0.000000e+00  2.036090e+03  2.036090e+03 0.0 0.0 9.0
21 -1 0 0 101 102  0.000000e+00  0.000000e+00 -3.109906e+03  3.109906e+03 0.0 0.0 9.0
21  1 1 2 103 102 -1.528722e+03 -6.697105e+02 -2.462526e+03  2.974817e+03 0.0 0.0 9.0
22  1 1 2   0   0  1.528722e+03  6.697105e+02  1.388710e+03  2.171179e+03 0.0 0.0 9.0
#pdf 21 21 3.132446e-01 4.784471e-01 5000.0 3.064017e-02 3.780980e-03
</event>
<event>
4 6 1.0 5000.0 7.905138e-03 7.739137e-02
21 -1 0 0 101 102  0.000000e+00  0.000000e+00  2.145154e+03  2.145154e+03 0.0 0.0 9.0
21 -1 0 0 103 101  0.000000e+00  0.000000e+00 -3.012175e+03  3.012175e+03 0.0 0.0 9.0
21  1 1 2 103 102  1.603458e+03  1.059296e+03 -2.121382e+03  2.862420e+03 0.0 0.0 9.0
22  1 1 2   0   0 -1.603458e+03 -1.059296e+03  1.254361e+03  2.294909e+03 0.0 0.0 9.0
#pdf 21 21 3.300236e-01 4.634116e-01 5000.0 2.493904e-02 4.621483e-03
</event>
<event>
4 6 1.0 5000.0 7.905138e-03 7.739137e-02
21 -1 0 0 101 102  0.000000e+00  0.000000e+00  4.228484e+03  4.228484e+03 0.0 0.0 9.0
21 -1 0 0 103 101  0.000000e+00  0.000000e+00 -1.601470e+03  1.601470e+03 0.0 0.0 9.0
22  1 1 2   0   0  2.497820e+03 -6.376289e+02  1.711303e+03  3.094226e+03 0.0 0.0 9.0
21  1 1 2 103 102 -2.497820e+03  6.376289e+02  9.157110e+02  2.735727e+03 0.0 0.0 9.0
#pdf 21 21 6.505360e-01 2.463800e-01 5000.0 2.744177e-04 6.974469e-02
</event>
<event>
4 6 1.0 5000.0 7.905138e-03 7.739137e-02
21 -1 0 0 101 102  0.000000e+00  0.000000e+00  2.704816e+03  2.704816e+03 0.0 0.0 9.0
21 -1 0 0 103 101  0.000000e+00  0.000000e+00 -2.308223e+03  2.308223e+03 0.0 0.0 9.0
22  1 1 2   0   0 -7.723209e+01 -2.178580e+03  1.423259e+03  2.603429e+03 0.0 0.0 9.0
21  1 1 2 103 102  7.723209e+01  2.178580e+03 -1.026666e+03  2.409610e+03 0.0 0.0 9.0
#pdf 21 21 4.161255e-01 3.551112e-01 5000.0 8.541533e-03 1.831898e-02
</event>
<event>
4 6 1.0 5000.0 7.905138e-03 7.739137e-02
21 -1 0 0 103 101  0.000000e+00  0.000000e+00  3.518343e+03  3.518343e+03 0.0 0.0 9.0
21 -1 0 0 101 102  0.000000e+00  0.000000e+00 -2.049426e+03  2.049426e+03 0.0 0.0 9.0
21  1 1 2 103 102  1.072576e+03 -1.482626e+03 -1.302918e+03  2.246373e+03 0.0 0.0 9.0
22  1 1 2   0   0 -1.072576e+03  1.482626e+03  2.771835e+03  3.321396e+03 0.0 0.0 9.0
#pdf 21 21 5.412836e-01 3.152963e-01 5000.0 1.570381e-03 2.987176e-02
</event>
<event>
4 6 1.0 5000.0 7.905138e-03 7.739137e-02
21 -1 0 0 101 102  0.000000e+00  0.000000e+00  2.811445e+03  2.811445e+03 0.0 0.0 9.0
21 -1 0 0 103 101  0.000000e+00  0.000000e+00 -1.911277e+03  1.911277e+03 0.0 0.0 9.0
22  1 1 2   0   0 -2.076290e+03  8.962340e+02  9.687420e+02  2.460219e+03 0.0 0.0 9.0
21  1 1 2 103 102  2.076290e+03 -8.962340e+02 -6.857408e+01  2.262503e+03 0.0 0.0 9.0
#pdf 21 21 4.325300e-01 2.940426e-01 5000.0 6.923535e-03 3.878571e-02
</event>
<event>
4 6 1.0 5000.0 7.905138e-03 7.739137e-02
21 -1 0 0 103 101  0.000000e+00  0.000000e+00  3.985153e+03  3.985153e+03 0.0 0.0 9.0
21 -1 0 0 101 102  0.000000e+00  0.000000e+00 -1.401354e+03  1.401354e+03 0.0 0.0 9.0
21  1 1 2 103 102 -4.127603e+02  1.212079e+03  3.555553e+03  3.779082e+03 0.0 0.0 9.0
22  1 1 2   0   0  4.127603e+02 -1.212079e+03 -9.717546e+02  1.607424e+03 0.0 0.0 9.0
#pdf 21 21 6.131004e-01 2.155930e-01 5000.0 5.191541e-04 1.029226e-01
</event>
<event>
4 6 1.0 5000.0 7.905138e-03 7.739137e-02
21 -1 0 0 101 102  0.000000e+00  0.000000e+00  2.312922e+03  2.312922e+03 0.0 0.0 9.0
21 -1 0 0 103 101  0.000000e+00  0.000000e+00 -2.498108e+03  2.498108e+03 0.0 0.0 9.0
22  1 1 2   0   0  1.057036e+03  1.200613e+03 -1.888119e+03  2.474629e+03 0.0 0.0 9.0
21  1 1 2 103 102 -1.057036e+03 -1.200613e+03  1.702933e+03  2.336402e+03 0.0 0.0 9.0
#pdf 21 21 3.558342e-01 3.843244e-01 5000.0 1.815519e-02 1.276492e-02
</event>
<event>
4 6 1.0 5000.0 7.905138e-03 7.739137e-02
21 -1 0 0 101 102  0.000000e+00  0.000000e+00  2.072795e+03  2.072795e+03 0.0 0.0 9.0
21 -1 0 0 103 101  0.000000e+00  0.000000e+00 -2.976197e+03  2.976197e+03 0.0 0.0 9.0
21  1 1 2 103 102  8.487088e+02 -2.040109e+03 -1.604632e+03  2.730787e+03 0.0 0.0 9.0
22  1 1 2   0   0 -8.487088e+02  2.040109e+03  7.012302e+02  2.318206e+03 0.0 0.0 9.0
#pdf 21 21 3.188916e-01 4.578765e-01 5000.0 2.857855e-02 4.974331e-03
</event>
<event>
4 6 1.0 5000.0 7.905138e-03 7.739137e-02
21 -1 0 0 101 102  0.000000e+00  0.000000e+00  1.915914e+03  1.915914e+03 0.0 0.0 9.0
21 -1 0 0 103 101  0.000000e+00  0.000000e+00 -2.833921e+03  2.833921e+03 0.0 0.0 9.0
22  1 1 2   0   0 -1.299790e+03  1.824255e+03  1.953525e+02  2.248449e+03 0.0 0.0 9.0
21  1 1 2 103 102  1.299790e+03 -1.824255e+03 -1.113359e+03  2.501386e+03 0.0 0.0 9.0
#pdf 21 21 2.947560e-01 4.359878e-01 5000.0 3.844811e-02 6.624384e-03
</event>
<event>
4 6 1.0 5000.0 7.905138e-03 7.739137e-02
21 -1 0 0 101 102  0.000000e+00  0.000000e+00  1.776169e+03  1.776169e+03 0.0 0.0 9.0
21 -1 0 0 103 101  0.000000e+00  0.000000e+00 -3.731937e+03  3.731937e+03 0.0 0.0 9.0
22  1 1 2   0   0 -1.378710e+03  1.916159e+02  1.338953e+03  1.931412e+03 0.0 0.0 9.0
21  1 1 2 103 102  1.378710e+03 -1.916159e+02 -3.294720e+03  3.576694e+03 0.0 0.0 9.0
#pdf 21 21 2.732568e-01 5.741441e-01 5000.0 5.000317e-02 9.615934e-04
</event>
<event>
4 6 1.0 5000.0 7.905138e-03 7.739137e-02
21 -1 0 0 101 102  0.000000e+00  0.000000e+00  3.493205e+03  3.493205e+03 0.0 0.0 9.0
21 -1 0 0 103 101  0.000000e+00  0.000000e+00 -1.619078e+03  1.619078e+03 0.0 0.0 9.0
21  1 1 2 103 102  2.351296e+03 -2.737622e+02  6.914158e+02  2.466089e+03 0.0 0.0 9.0
22  1 1 2   0   0 -2.351296e+03  2.737622e+02  1.182712e+03  2.646194e+03 0.0 0.0 9.0
#pdf 21 21 5.374162e-01 2.490889e-01 5000.0 1.660985e-03 6.748708e-02
</event>
<event>
4 6 1.0 5000.0 7.905138e-03 7.739137e-02
21 -1 0 0 101 102  0.000000e+00  0.000000e+00  1.932427e+03  1.932427e+03 0.0 0.0 9.0
21 -1 0 0 103 101  0.000000e+00  0.000000e+00 -2.988607e+03  2.988607e+03 0.0 0.0 9.0
22  1 1 2   0   0 -4.581519e+02 -1.873983e+03  9.391217e+02  2.145615e+03 0.0 0.0 9.0
21  1 1 2 103 102  4.581519e+02  1.873983e+03 -1.995302e+03  2.775418e+03 0.0 0.0 9.0
#pdf 21 21 2.972964e-01 4.597857e-01 5000.0 3.725888e-02 4.849339e-03
</event>
<event>
4 6 1.0 5000.0 7.905138e-03 7.739137e-02
21 -1 0 0 103 101  0.000000e+00  0.000000e+00  3.634102e+03  3.634102e+03 0.0 0.0 9.0
21 -1 0 0 101 102  0.000000e+00  0.000000e+00 -2.021665e+03  2.021665e+03 0.0 0.0 9.0
22  1 1 2   0   0 -1.449429e+03 -8.729452e+02  3.015464e+03  3.457730e+03 0.0 0.0 9.0
21  1 1 2 103 102  1.449429e+03  8.729452e+02 -1.403027e+03  2.198036e+03 0.0 0.0 9.0
#pdf 21 21 5.590926e-01 3.110254e-01 5000.0 1.209529e-03 3.149399e-02
</event>
<event>
4 6 1.0 5000.0 7.905138e-03 7.739137e-02
21 -1 0 0 103 101  0.000000e+00  0.000000e+00  1.723925e+03  1.723925e+03 0.0 0.0 9.0
21 -1 0 0 101 102  0.000000e+00  0.000000e+00 -2.899455e+03  2.899455e+03 0.0 0.0 9.0
22  1 1 2   0   0  1.078676e+03  6.634284e+02 -2.492861e+03  2.796075e+03 0.0 0.0 9.0
21  1 1 2 103 102 -1.078676e+03 -6.634284e+02  1.317331e+03  1.827304e+03 0.0 0.0 9.0
#pdf 21 21 2.652192e-01 4.460700e-01 5000.0 5.520547e-02 5.804079e-03
</event>
<event>
4 6 1.0 5000.0 7.905138e-03 7.739137e-02
21 -1 0 0 103 101  0.000000e+00  0.000000e+00  2.320870e+03  2.320870e+03 0.0 0.0 9.0
21 -1 0 0 101 102  0.000000e+00  0.000000e+00 -1.969208e+03  1.969208e+03 0.0 0.0 9.0
22  1 1 2   0   0 -6.224746e+02 -1.962889e+02 -1.866791e+03  1.977603e+03 0.0 0.0 9.0
21  1 1 2 103 102  6.224746e+02  1.962889e+02  2.218454e+03  2.312475e+03 0.0 0.0 9.0
#pdf 21 21 3.570569e-01 3.029550e-01 5000.0 1.788289e-02 3.475941e-02
</event>
<event>
4 6 1.0 5000.0 7.905138e-03 7.739137e-02
21 -1 0 0 101 102  0.000000e+00  0.000000e+00  2.326063e+03  2.326063e+03 0.0 0.0 9.0
21 -1 0 0 103 101  0.000000e+00  0.000000e+00 -2.142140e+03  2.142140e+03 0.0 0.0 9.0
21  1 1 2 103 102 -4.106947e+02 -1.919094e+03  1.156423e+03  2.277917e+03 0.0 0.0 9.0
22  1 1 2   0   0  4.106947e+02  1.919094e+03 -9.725003e+02  2.190285e+03 0.0 0.0 9.0
#pdf 21 21 3.578558e-01 3.295600e-01 5000.0 1.770792e-02 2.508100e-02
</event>
<event>
4 6 1.0 5000.0 7.905138e-03 7.739137e-02
21 -1 0 0 101 102  0.000000e+00  0.000000e+00  1.927643e+03  1.927643e+03 0.0 0.0 9.0
21 -1 0 0 103 101  0.000000e+00  0.000000e+00 -2.891301e+03  2.891301e+03 0.0 0.0 9.0
21  1 1 2 103 102  2.169903e+02  1.035640e+03  1.672070e+03  1.978750e+03 0.0 0.0 9.0
22  1 1 2   0   0 -2.169903e+02 -1.035640e+03 -2.635728e+03  2.840193e+03 0.0 0.0 9.0
#pdf 21 21 2.965604e-01 4.448156e-01 5000.0 3.760155e-02 5.902481e-03
</event>
<event>
4 6 1.0 5000.0 7.905138e-03 7.739137e-02
21 -1 0 0 101 102  0.000000e+00  0.000000e+00  2.052324e+03  2.052324e+03 0.0 0.0 9.0
21 -1 0 0 103 101  0.000000e+00  0.000000e+00 -2.957631e+03  2.957631e+03 0.0 0.0 9.0
21  1 1 2 103 102 -1.227859e+03  1.085573e+03  1.417676e+03  2.167006e+03 0.0 0.0 9.0
22  1 1 2   0   0  1.227859e+03 -1.085573e+03 -2.322984e+03  2.842949e+03 0.0 0.0 9.0
#pdf 21 21 3.157421e-01 4.550202e-01 5000.0 2.970761e-02 5.166779e-03
</event>
<event>
4 6 1.0 5000.0 7.905138e-03 7.739137e-02
21 -1 0 0 101 102  0.000000e+00  0.000000e+00  2.325281e+03  2.325281e+03 0.0 0.0 9.0
21 -1 0 0 103 101  0.000000e+00  0.000000e+00 -2.736308e+03  2.736308e+03 0.0 0.0 9.0
21  1 1 2 103 102 -9.644385e+02 -2.325341e+03 -3.651967e+02  2.543761e+03 0.0 0.0 9.0
22  1 1 2   0   0  9.644385e+02  2.325341e+03 -4.583059e+01  2.517827e+03 0.0 0.0 9.0
#pdf 21 21 3.577355e-01 4.209704e-01 5000.0 1.773414e-02 8.030224e-03
</event>
<event>
4 6 1.0 5000.0 7.905138e-03 7.739137e-02
21 -1 0 0 103 101  0.000000e+00  0.000000e+00  2.065052e+03  2.065052e+03 0.0 0.0 9.0
21 -1 0 0 101 102  0.000000e+00  0.000000e+00 -3.047666e+03  3.047666e+03 0.0 0.0 9.0
21  1 1 2 103 102  3.149030e+02 -1.752925e+03 -2.291698e+03  2.902376e+03 0.0 0.0 9.0
22  1 1 2   0   0 -3.149030e+02  1.752925e+03  1.309084e+03  2.210342e+03 0.0 0.0 9.0
#pdf 21 21 3.177003e-01 4.688717e-01 5000.0 2.899936e-02 4.298900e-03
</event>
<event>
4 6 1.0 5000.0 7.905138e-03 7.739137e-02
21 -1 0 0 101 102  0.000000e+00  0.000000e+00  2.542711e+03  2.542711e+03 0.0 0.0 9.0
21 -1 0 0 103 101  0.000000e+00  0.000000e+00 -2.563870e+03  2.563870e+03 0.0 0.0 9.0
22  1 1 2   0   0 -1.583397e+03  1.877088e+02 -2.004788e+03  2.561553e+03 0.0 0.0 9.0
21  1 1 2 103 102  1.583397e+03 -1.877088e+02  1.983629e+03  2.545028e+03 0.0 0.0 9.0
#pdf 21 21 3.911863e-01 3.944415e-01 5000.0 1.170736e-02 1.123794e-02
</event>
<event>
4 6 1.0 5000.0 7.905138e-03 7.739137e-02
21 -1 0 0 103 101  0.000000e+00  0.000000e+00  3.724200e+03  3.724200e+03 0.0 0.0 9.0
21 -1 0 0 101 102  0.000000e+00  0.000000e+00 -1.608030e+03  1.608030e+03 0.0 0.0 9.0
22  1 1 2   0   0  1.060599e+03 -1.001496e+02  3.458315e+03  3.618680e+03 0.0 0.0 9.0
21  1 1 2 103 102 -1.060599e+03  1.001496e+02 -1.342145e+03  1.713550e+03 0.0 0.0 9.0
#pdf 21 21 5.729538e-01 2.473893e-01 5000.0 9.793457e-04 6.889934e-02
</event>
<event>
4 6 1.0 5000.0 7.905138e-03 7.739137e-02
21 -1 0 0 103 101  0.000000e+00  0.000000e+00  1.650455e+03  1.650455e+03 0.0 0.0 9.0
21 -1 0 0 101 102  0.000000e+00  0.000000e+00 -3.612026e+03  3.612026e+03 0.0 0.0 9.0
22  1 1 2   0   0  1.378312e+03  1.572838e+03  3.772083e+02  2.125053e+03 0.0 0.0 9.0
21  1 1 2 103 102 -1.378312e+03 -1.572838e+03 -2.338780e+03  3.137428e+03 0.0 0.0 9.0
#pdf 21 21 2.539161e-01 5.556964e-01 5000.0 6.357299e-02 1.271381e-03
</event>
<event>
4 6 1.0 5000.0 7.905138e-03 7.739137e-02
21 -1 0 0 103 101  0.000000e+00  0.000000e+00  2.693069e+03  2.693069e+03 0.0 0.0 9.0
21 -1 0 0 101 102  0.000000e+00  0.000000e+00 -2.121036e+03  2.121036e+03 0.0 0.0 9.0
22  1 1 2   0   0  8.533917e+02 -1.306256e+03 -1.537291e+03  2.190399e+03 0.0 0.0 9.0
21  1 1 2 103 102 -8.533917e+02  1.306256e+03  2.109325e+03  2.623706e+03 0.0 0.0 9.0
#pdf 21 21 4.143183e-01 3.263132e-01 5000.0 8.740132e-03 2.609722e-02
</event>
<event>
4 6 1.0 5000.0 7.905138e-03 7.739137e-02
21 -1 0 0 103 101  0.000000e+00  0.000000e+00  2.057018e+03  2.057018e+03 0.0 0.0 9.0
21 -1 0 0 101 102  0.000000e+00  0.000000e+00 -2.890413e+03  2.890413e+03 0.0 0.0 9.0
21  1 1 2 103 102  9.352049e+02 -1.148027e+03  1.548668e+03  2.142649e+03 0.0 0.0 9.0
22  1 1 2   0   0 -9.352049e+02  1.148027e+03 -2.382063e+03  2.804781e+03 0.0 0.0 9.0
#pdf 21 21 3.164643e-01 4.446789e-01 5000.0 2.944396e-02 5.913371e-03
</event>
<event>
4 6 1.0 5000.0 7.905138e-03 7.739137e-02
21 -1 0 0 101 102  0.000000e+00  0.000000e+00  2.523534e+03  2.523534e+03 0.0 0.0 9.0
21 -1 0 0 103 101  0.000000e+00  0.000000e+00 -2.691982e+03  2.691982e+03 0.0 0.0 9.0
22  1 1 2   0   0  2.395276e+01  2.077853e+03  1.489893e+03  2.556918e+03 0.0 0.0 9.0
21  1 1 2 103 102 -2.395276e+01 -2.077853e+03 -1.658341e+03  2.658598e+03 0.0 0.0 9.0
#pdf 21 21 3.882360e-01 4.141511e-01 5000.0 1.215074e-02 8.758739e-03
</event>
<event>
4 6 1.0 5000.0 7.905138e-03 7.739137e-02
21 -1 0 0 103 101  0.000000e+00  0.000000e+00  2.046236e+03  2.046236e+03 0.0 0.0 9.0
21 -1 0 0 101 102  0.000000e+00  0.000000e+00 -2.592286e+03  2.592286e+03 0.0 0.0 9.0
21  1 1 2 103 102 -1.036524e+03 -2.896813e+02  1.777438e+03  2.077879e+03 0.0 0.0 9.0
22  1 1 2   0   0  1.036524e+03  2.896813e+02 -2.323488e+03  2.560643e+03 0.0 0.0 9.0
#pdf 21 21 3.148055e-01 3.988133e-01 5000.0 3.005362e-02 1.063734e-02
</event>
<event>
4 6 1.0 5000.0 7.905138e-03 7.739137e-02
21 -1 0 0 101 102  0.000000e+00  0.000000e+00  1.155202e+03  1.155202e+03 0.0 0.0 9.0
21 -1 0 0 103 101  0.000000e+00  0.000000e+00 -4.660706e+03  4.660706e+03 0.0 0.0 9.0
22  1 1 2   0   0 -9.234265e+02 -2.062800e+03 -2.411384e+03  3.304941e+03 0.0 0.0 9.0
21  1 1 2 103 102  9.234265e+02  2.062800e+03 -1.094121e+03  2.510968e+03 0.0 0.0 9.0
#pdf 21 21 1.777234e-01 7.170318e-01 5000.0 1.691780e-01 7.634450e-05
</event>
<event>
4 6 1.0 5000.0 7.905138e-03 7.739137e-02
21 -1 0 0 103 101  0.000000e+00  0.000000e+00  2.275068e+03  2.275068e+03 0.0 0.0 9.0
21 -1 0 0 101 102  0.000000e+00  0.000000e+00 -2.758029e+03  2.758029e+03 0.0 0.0 9.0
21  1 1 2 103 102 -3.721675e+02 -5.672795e+02 -2.663964e+03  2.749003e+03 0.0 0.0 9.0
22  1 1 2   0   0  3.721675e+02  5.672795e+02  2.181002e+03  2.284094e+03 0.0 0.0 9.0
#pdf 21 21 3.500104e-01 4.243122e-01 5000.0 1.951724e-02 7.693921e-03
</event>
<event>
4 6 1.0 5000.0 7.905138e-03 7.739137e-02
21 -1 0 0 101 102  0.000000e+00  0.000000e+00  2.017150e+03  2.017150e+03 0.0 0.0 9.0
21 -1 0 0 103 101  0.000000e+00  0.000000e+00 -3.126104e+03  3.126104e+03 0.0 0.0 9.0
22  1 1 2   0   0 -3.845456e+02  2.478657e+03 -6.765246e+02  2.597942e+03 0.0 0.0 9.0
21  1 1 2 103 102  3.845456e+02 -2.478657e+03 -4.324301e+02  2.545312e+03 0.0 0.0 9.0
#pdf 21 21 3.103307e-01 4.809391e-01 5000.0 3.176572e-02 3.655502e-03
</event>
<event>
4 6 1.0 5000.0 7.905138e-03 7.739137e-02
21 -1 0 0 101 102  0.000000e+00  0.000000e+00  1.977217e+03  1.977217e+03 0.0 0.0 9.0
21 -1 0 0 103 101  0.000000e+00  0.000000e+00 -3.071974e+03  3.071974e+03 0.0 0.0 9.0
21  1 1 2 103 102  1.824038e+03  3.035858e+02 -2.216400e+03  2.886470e+03 0.0 0.0 9.0
22  1 1 2   0   0 -1.824038e+03 -3.035858e+02  1.121643e+03  2.162721e+03 0.0 0.0 9.0
#pdf 21 21 3.041873e-01 4.726114e-01 5000.0 3.424750e-02 4.089640e-03
</event>
<event>
4 6 1.0 5000.0 7.905138e-03 7.739137e-02
21 -1 0 0 103 101  0.000000e+00  0.000000e+00  2.423994e+03  2.423994e+03 0.0 0.0 9.0
21 -1 0 0 101 102  0.000000e+00  0.000000e+00 -2.473151e+03  2.473151e+03 0.0 0.0 9.0
22  1 1 2   0   0  4.813461e+02  1.269602e+03 -2.062160e+03  2.469026e+03 0.0 0.0 9.0
21  1 1 2 103 102 -4.813461e+02 -1.269602e+03  2.013003e+03  2.428119e+03 0.0 0.0 9.0
#pdf 21 21 3.729221e-01 3.804848e-01 5000.0 1.470098e-02 1.339454e-02
</event>
<event>
4 6 1.0 5000.0 7.905138e-03 7.739137e-02
21 -1 0 0 103 101  0.000000e+00  0.000000e+00  2.808984e+03  2.808984e+03 0.0 0.0 9.0
21 -1 0 0 101 102  0.000000e+00  0.000000e+00 -2.095376e+03  2.095376e+03 0.0 0.0 9.0
21  1 1 2 103 102 -2.923860e+02  8.833236e+02  2.621469e+03  2.781699e+03 0.0 0.0 9.0
22  1 1 2   0   0  2.923860e+02 -8.833236e+02 -1.907861e+03  2.122660e+03 0.0 0.0 9.0
#pdf 21 21 4.321513e-01 3.223655e-01 5000.0 6.957079e-03 2.738809e-02
</event>
<event>
4 6 1.0 5000.0 7.905138e-03 7.739137e-02
21 -1 0 0 103 101  0.000000e+00  0.000000e+00  2.288133e+03  2.288133e+03 0.0 0.0 9.0
21 -1 0 0 101 102  0.000000e+00  0.000000e+00 -2.206343e+03  2.206343e+03 0.0 0.0 9.0
22  1 1 2   0   0  1.828682e+03  1.719171e+02 -1.253450e+03  2.223684e+03 0.0 0.0 9.0
21  1 1 2 103 102 -1.828682e+03 -1.719171e+02  1.335240e+03  2.270792e+03 0.0 0.0 9.0
#pdf 21 21 3.520205e-01 3.394374e-01 5000.0 1.903830e-02 2.221549e-02
</event>
<event>
4 6 1.0 5000.0 7.905138e-03 7.739137e-02
21 -1 0 0 103 101  0.000000e+00  0.000000e+00  2.368017e+03  2.368017e+03 0.0 0.0 9.0
21 -1 0 0 101 102  0.000000e+00  0.000000e+00 -1.889388e+03  1.889388e+03 0.0 0.0 9.0
22  1 1 2   0   0 -6.544126e+02 -2.007591e+03  3.643002e+02  2.142754e+03 0.0 0.0 9.0
21  1 1 2 103 102  6.544126e+02  2.007591e+03  1.143289e+02  2.114651e+03 0.0 0.0 9.0
#pdf 21 21 3.643103e-01 2.906751e-01 5000.0 1.635973e-02 4.040755e-02
</event>
<event>
4 6 1.0 5000.0 7.905138e-03 7.739137e-02
21 -1 0 0 101 102  0.000000e+00  0.000000e+00  2.584808e+03  2.584808e+03 0.0 0.0 9.0
21 -1 0 0 103 101  0.000000e+00  0.000000e+00 -2.425794e+03  2.425794e+03 0.0 0.0 9.0
22  1 1 2   0   0 -1.292402e+03 -1.500173e+03 -1.454038e+03  2.456633e+03 0.0 0.0 9.0
21  1 1 2 103 102  1.292402e+03  1.500173e+03  1.613052e+03  2.553969e+03 0.0 0.0 9.0
#pdf 21 21 3.976628e-01 3.731991e-01 5000.0 1.079225e-02 1.465179e-02
</event>
<event>
4 6 1.0 5000.0 7.905138e-03 7.739137e-02
21 -1 0 0 101 102  0.000000e+00  0.000000e+00  2.918348e+03  2.918348e+03 0.0 0.0 9.0
21 -1 0 0 103 101  0.000000e+00  0.000000e+00 -1.565456e+03  1.565456e+03 0.0 0.0 9.0
21  1 1 2 103 102 -5.242328e+02 -9.315481e+02  2.617859e+03  2.827682e+03 0.0 0.0 9.0
22  1 1 2   0   0  5.242328e+02  9.315481e+02 -1.264966e+03  1.656122e+03 0.0 0.0 9.0
#pdf 21 21 4.489767e-01 2.408394e-01 5000.0 5.590102e-03 7.482456e-02
</event>
<event>
4 6 1.0 5000.0 7.905138e-03 7.739137e-02
21 -1 0 0 103 101  0.000000e+00  0.000000e+00  2.094766e+03  2.094766e+03 0.0 0.0 9.0
21 -1 0 0 101 102  0.000000e+00  0.000000e+00 -3.251968e+03  3.251968e+03 0.0 0.0 9.0
22  1 1 2   0   0  1.692522e+02 -2.495052e+03 -1.343853e+03  2.838992e+03 0.0 0.0 9.0
21  1 1 2 103 102 -1.692522e+02  2.495052e+03  1.866510e+02  2.507742e+03 0.0 0.0 9.0
#pdf 21 21 3.222716e-01 5.003028e-01 5000.0 2.741956e-02 2.806549e-03
</event>
<event>
4 6 1.0 5000.0 7.905138e-03 7.739137e-02
21 -1 0 0 101 102  0.000000e+00  0.000000e+00  1.886044e+03  1.886044e+03 0.0 0.0 9.0
21 -1 0 0 103 101  0.000000e+00  0.000000e+00 -3.019474e+03  3.019474e+03 0.0 0.0 9.0
21  1 1 2 103 102 -8.478264e+02 -1.352483e+03  1.256554e+03  2.031489e+03 0.0 0.0 9.0
22  1 1 2   0   0  8.478264e+02  1.352483e+03 -2.389984e+03  2.874029e+03 0.0 0.0 9.0
#pdf 21 21 2.901606e-01 4.645345e-01 5000.0 4.066011e-02 4.553432e-03
</event>
<event>
4 6 1.0 5000.0 7.905138e-03 7.739137e-02
21 -1 0 0 101 102  0.000000e+00  0.000000e+00  2.289673e+03  2.289673e+03 0.0 0.0 9.0
21 -1 0 0 103 101  0.000000e+00  0.000000e+00 -2.615662e+03  2.615662e+03 0.0 0.0 9.0
21  1 1 2 103 102  1.469757e+03 -1.462235e+03 -1.466143e+03  2.539270e+03 0.0 0.0 9.0
22  1 1 2   0   0 -1.469757e+03  1.462235e+03  1.140154e+03  2.366066e+03 0.0 0.0 9.0
#pdf 21 21 3.522574e-01 4.024096e-01 5000.0 1.898241e-02 1.016662e-02
</event>
<event>
4 6 1.0 5000.0 7.905138e-03 7.739137e-02
21 -1 0 0 103 101  0.000000e+00  0.000000e+00  3.102421e+03  3.102421e+03 0.0 0.0 9.0
21 -1 0 0 101 102  0.000000e+00  0.000000e+00 -2.048580e+03  2.048580e+03 0.0 0.0 9.0
21  1 1 2 103 102  2.175578e+03 -6.465416e+02  1.648088e+03  2.804880e+03 0.0 0.0 9.0
22  1 1 2   0   0 -2.175578e+03  6.465416e+02 -5.942465e+02  2.346122e+03 0.0 0.0 9.0
#pdf 21 21 4.772956e-01 3.151662e-01 5000.0 3.840217e-03 2.991985e-02
</event>
<event>
4 6 1.0 5000.0 7.905138e-03 7.739137e-02
21 -1 0 0 101 102  0.000000e+00  0.000000e+00  3.228798e+03  3.228798e+03 0.0 0.0 9.0
21 -1 0 0 103 101  0.000000e+00  0.000000e+00 -1.927145e+03  1.927145e+03 0.0 0.0 9.0
21  1 1 2 103 102 -1.327152e+02  1.844069e+03 -1.079794e+03  2.141065e+03 0.0 0.0 9.0
22  1 1 2   0   0  1.327152e+02 -1.844069e+03  2.381447e+03  3.014879e+03 0.0 0.0 9.0
#pdf 21 21 4.967382e-01 2.964839e-01 5000.0 2.948230e-03 3.763727e-02
</event>
<event>
4 6 1.0 5000.0 7.905138e-03 7.739137e-02
21 -1 0 0 101 102  0.000000e+00  0.000000e+00  3.082668e+03  3.082668e+03 0.0 0.0 9.0
21 -1 0 0 103 101  0.000000e+00  0.000000e+00 -1.996048e+03  1.996048e+03 0.0 0.0 9.0
22  1 1 2   0   0 -1.719086e+03  1.630174e+03  1.295875e+03  2.700373e+03 0.0 0.0 9.0
21  1 1 2 103 102  1.719086e+03 -1.630174e+03 -2.092552e+02  2.378342e+03 0.0 0.0 9.0
#pdf 21 21 4.742566e-01 3.070843e-01 5000.0 4.000466e-03 3.306101e-02
</event>
<event>
4 6 1.0 5000.0 7.905138e-03 7.739137e-02
21 -1 0 0 101 102  0.000000e+00  0.000000e+00  2.044761e+03  2.044761e+03 0.0 0.0 9.0
21 -1 0 0 103 101  0.000000e+00  0.000000e+00 -3.787306e+03  3.787306e+03 0.0 0.0 9.0
22  1 1 2   0   0  1.876375e+03 -1.190481e+02 -3.021106e+03  3.558376e+03 0.0 0.0 9.0
21  1 1 2 103 102 -1.876375e+03  1.190481e+02  1.278560e+03  2.273691e+03 0.0 0.0 9.0
#pdf 21 21 3.145786e-01 5.826625e-01 5000.0 3.013816e-02 8.433961e-04
</event>
<event>
4 6 1.0 5000.0 7.905138e-03 7.739137e-02
21 -1 0 0 103 101  0.000000e+00  0.000000e+00  3.031112e+03  3.031112e+03 0.0 0.0 9.0
21 -1 0 0 101 102  0.000000e+00  0.000000e+00 -1.981764e+03  1.981764e+03 0.0 0.0 9.0
21  1 1 2 103 102 -8.475395e+02  1.454239e+03 -1.297210e+03  2.125062e+03 0.0 0.0 9.0
22  1 1 2   0   0  8.475395e+02 -1.454239e+03  2.346558e+03  2.887814e+03 0.0 0.0 9.0
#pdf 21 21 4.663249e-01 3.048867e-01 5000.0 4.446780e-03 3.395872e-02
</event>
<event>
4 6 1.0 5000.0 7.905138e-03 7.739137e-02
21 -1 0 0 101 102  0.000000e+00  0.000000e+00  4.126684e+03  4.126684e+03 0.0 0.0 9.0
21 -1 0 0 103 101  0.000000e+00  0.000000e+00 -1.373017e+03  1.373017e+03 0.0 0.0 9.0
21  1 1 2 103 102  1.221758e+03 -6.585753e+02  3.610831e+03  3.868400e+03 0.0 0.0 9.0
22  1 1 2   0   0 -1.221758e+03  6.585753e+02 -8.571634e+02  1.631301e+03 0.0 0.0 9.0
#pdf 21 21 6.348745e-01 2.112333e-01 5000.0 3.604167e-04 1.088026e-01
</event>
<event>
4 6 1.0 5000.0 7.905138e-03 7.739137e-02
21 -1 0 0 101 102  0.000000e+00  0.000000e+00  3.387060e+03  3.387060e+03 0.0 0.0 9.0
21 -1 0 0 103 101  0.000000e+00  0.000000e+00 -2.046339e+03  2.046339e+03 0.0 0.0 9.0
21  1 1 2 103 102 -1.243309e+03 -1.691923e+03 -9.686066e+02  2.312276e+03 0.0 0.0 9.0
22  1 1 2   0   0  1.243309e+03  1.691923e+03  2.309327e+03  3.121123e+03 0.0 0.0 9.0
#pdf 21 21 5.210861e-01 3.148214e-01 5000.0 2.099163e-03 3.004772e-02
</event>
<event>
4 6 1.0 5000.0 7.905138e-03 7.739137e-02
21 -1 0 0 101 102  0.000000e+00  0.000000e+00  1.571152e+03  1.571152e+03 0.0 0.0 9.0
21 -1 0 0 103 101  0.000000e+00  0.000000e+00 -3.888000e+03  3.888000e+03 0.0 0.0 9.0
21  1 1 2 103 102  1.711867e+03  1.335260e+03 -2.462930e+03  3.283204e+03 0.0 0.0 9.0
22  1 1 2   0   0 -1.711867e+03 -1.335260e+03  1.460809e+02  2.175948e+03 0.0 0.0 9.0
#pdf 21 21 2.417156e-01 5.981539e-01 5000.0 7.400245e-02 6.609744e-04
</event>
<event>
4 6 1.0 5000.0 7.905138e-03 7.739137e-02
21 -1 0 0 103 101  0.000000e+00  0.000000e+00  2.560563e+03  2.560563e+03 0.0 0.0 9.0
21 -1 0 0 101 102  0.000000e+00  0.000000e+00 -2.240163e+03  2.240163e+03 0.0 0.0 9.0
21  1 1 2 103 102  1.782867e+03 -1.003180e+03 -1.088012e+03  2.317057e+03 0.0 0.0 9.0
22  1 1 2   0   0 -1.782867e+03  1.003180e+03  1.408412e+03  2.483668e+03 0.0 0.0 9.0
#pdf 21 21 3.939327e-01 3.446404e-01 5000.0 1.131002e-02 2.084577e-02
</event>
<event>
4 6 1.0 5000.0 7.905138e-03 7.739137e-02
21 -1 0 0 103 101  0.000000e+00  0.000000e+00  2.713586e+03  2.713586e+03 0.0 0.0 9.0
21 -1 0 0 101 102  0.000000e+00  0.000000e+00 -2.366002e+03  2.366002e+03 0.0 0.0 9.0
22  1 1 2   0   0 -1.435501e+03  7.009736e+02 -1.797634e+03  2.404894e+03 0.0 0.0 9.0
21  1 1 2 103 102  1.435501e+03 -7.009736e+02  2.145218e+03  2.674694e+03 0.0 0.0 9.0
#pdf 21 21 4.174747e-01 3.640002e-01 5000.0 8.396136e-03 1.642249e-02
</event>
<event>
4 6 1.0 5000.0 7.905138e-03 7.739137e-02
21 -1 0 0 101 102  0.000000e+00  0.000000e+00  1.479068e+03  1.479068e+03 0.0 0.0 9.0
21 -1 0 0 103 101  0.000000e+00  0.000000e+00 -4.291718e+03  4.291718e+03 0.0 0.0 9.0
21  1 1 2 103 102  8.711359e+02 -6.622687e+01 -4.112691e+03  4.204461e+03 0.0 0.0 9.0
22  1 1 2   0   0 -8.711359e+02  6.622687e+01  1.300042e+03  1.566325e+03 0.0 0.0 9.0
#pdf 21 21 2.275490e-01 6.602643e-01 5000.0 8.832952e-02 2.307621e-04
</event>
<event>
4 6 1.0 5000.0 7.905138e-03 7.739137e-02
21 -1 0 0 103 101  0.000000e+00  0.000000e+00  2.355741e+03  2.355741e+03 0.0 0.0 9.0
21 -1 0 0 101 102  0.000000e+00  0.000000e+00 -2.878576e+03  2.878576e+03 0.0 0.0 9.0
22  1 1 2   0   0  8.482573e+02  1.166564e+03  1.917605e+03  2.399504e+03 0.0 0.0 9.0
21  1 1 2 103 102 -8.482573e+02 -1.166564e+03 -2.440440e+03  2.834812e+03 0.0 0.0 9.0
#pdf 21 21 3.624216e-01 4.428578e-01 5000.0 1.674445e-02 6.059038e-03
</event>
<event>
4 6 1.0 5000.0 7.905138e-03 7.739137e-02
21 -1 0 0 103 101  0.000000e+00  0.000000e+00  3.872046e+03  3.872046e+03 0.0 0.0 9.0
21 -1 0 0 101 102  0.000000e+00  0.000000e+00 -1.456433e+03  1.456433e+03 0.0 0.0 9.0
22  1 1 2   0   0 -9.179312e+02  1.580347e+03 -4.933871e+02  1.893020e+03 0.0 0.0 9.0
21  1 1 2 103 102  9.179312e+02 -1.580347e+03  2.909000e+03  3.435459e+03 0.0 0.0 9.0
#pdf 21 21 5.956994e-01 2.240666e-01 5000.0 6.871908e-04 9.234115e-02
</event>
<event>
4 6 1.0 5000.0 7.905138e-03 7.739137e-02
21 -1 0 0 103 101  0.000000e+00  0.000000e+00  2.199866e+03  2.199866e+03 0.0 0.0 9.0
21 -1 0 0 101 102  0.000000e+00  0.000000e+00 -2.880378e+03  2.880378e+03 0.0 0.0 9.0
22  1 1 2   0   0 -2.680299e+02 -2.497604e+03 -1.757463e+02  2.518085e+03 0.0 0.0 9.0
21  1 1 2 103 102  2.680299e+02  2.497604e+03 -5.047663e+02  2.562159e+03 0.0 0.0 9.0
#pdf 21 21 3.384409e-01 4.431351e-01 5000.0 2.248868e-02 6.036775e-03
</event>
<event>
4 6 1.0 5000.0 7.905138e-03 7.739137e-02
21 -1 0 0 103 101  0.000000e+00  0.000000e+00  3.020910e+03  3.020910e+03 0.0 0.0 9.0
21 -1 0 0 101 102  0.000000e+00  0.000000e+00 -1.877179e+03  1.877179e+03 0.0 0.0 9.0
21  1 1 2 103 102 -8.992866e+02  2.061036e+03  1.377859e+03  2.637249e+03 0.0 0.0 9.0
22  1 1 2   0   0  8.992866e+02 -2.061036e+03 -2.341278e+02  2.260841e+03 0.0 0.0 9.0
#pdf 21 21 4.647554e-01 2.887968e-01 5000.0 4.540152e-03 4.133679e-02
</event>
<event>
4 6 1.0 5000.0 7.905138e-03 7.739137e-02
21 -1 0 0 103 101  0.000000e+00  0.000000e+00  1.890953e+03  1.890953e+03 0.0 0.0 9.0
21 -1 0 0 101 102  0.000000e+00  0.000000e+00 -3.381110e+03  3.381110e+03 0.0 0.0 9.0
21  1 1 2 103 102 -2.258088e+03 -6.442191e+02  2.326289e+02  2.359681e+03 0.0 0.0 9.0
22  1 1 2   0   0  2.258088e+03  6.442191e+02 -1.722786e+03  2.912382e+03 0.0 0.0 9.0
#pdf 21 21 2.909159e-01 5.201708e-01 5000.0 4.028981e-02 2.126497e-03
</event>
<event>
4 6 1.0 5000.0 7.905138e-03 7.739137e-02
21 -1 0 0 103 101  0.000000e+00  0.000000e+00  1.862899e+03  1.862899e+03 0.0 0.0 9.0
21 -1 0 0 101 102  0.000000e+00  0.000000e+00 -3.149188e+03  3.149188e+03 0.0 0.0 9.0
21  1 1 2 103 102 -1.458078e+03 -6.816063e+02  1.229561e+03  2.025438e+03 0.0 0.0 9.0
22  1 1 2   0   0  1.458078e+03  6.816063e+02 -2.515850e+03  2.986650e+03 0.0 0.0 9.0
#pdf 21 21 2.865999e-01 4.844905e-01 5000.0 4.245121e-02 3.483447e-03
</event>
<event>
4 6 1.0 5000.0 7.905138e-03 7.739137e-02
21 -1 0 0 101 102  0.000000e+00  0.000000e+00  3.081445e+03  3.081445e+03 0.0 0.0 9.0
21 -1 0 0 103 101  0.000000e+00  0.000000e+00 -1.587792e+03  1.587792e+03 0.0 0.0 9.0
21  1 1 2 103 102 -1.618500e+03 -9.023561e+02 -5.280132e+02  1.926807e+03 0.0 0.0 9.0
22  1 1 2   0   0  1.618500e+03  9.023561e+02  2.021666e+03  2.742430e+03 0.0 0.0 9.0
#pdf 21 21 4.740684e-01 2.442757e-01 5000.0 4.010575e-03 7.162622e-02
</event>
<event>
4 6 1.0 5000.0 7.905138e-03 7.739137e-02
21 -1 0 0 103 101  0.000000e+00  0.000000e+00  2.284094e+03  2.284094e+03 0.0 0.0 9.0
21 -1 0 0 101 102  0.000000e+00  0.000000e+00 -2.621914e+03  2.621914e+03 0.0 0.0 9.0
22  1 1 2   0   0 -4.515711e+01  5.948343e+02 -2.547915e+03  2.616818e+03 0.0 0.0 9.0
21  1 1 2 103 102  4.515711e+01 -5.948343e+02  2.210095e+03  2.289190e+03 0.0 0.0 9.0
#pdf 21 21 3.513991e-01 4.033714e-01 5000.0 1.918541e-02 1.004403e-02
</event>
<event>
4 6 1.0 5000.0 7.905138e-03 7.739137e-02
21 -1 0 0 103 101  0.000000e+00  0.000000e+00  2.811754e+03  2.811754e+03 0.0 0.0 9.0
21 -1 0 0 101 102  0.000000e+00  0.000000e+00 -1.970628e+03  1.970628e+03 0.0 0.0 9.0
22  1 1 2   0   0  1.107381e+03 -1.868655e+03 -5.008587e+02  2.229131e+03 0.0 0.0 9.0
21  1 1 2 103 102 -1.107381e+03  1.868655e+03  1.341984e+03  2.553251e+03 0.0 0.0 9.0
#pdf 21 21 4.325775e-01 3.031736e-01 5000.0 6.919339e-03 3.466834e-02
</event>
<event>
4 6 1.0 5000.0 7.905138e-03 7.739137e-02
21 -1 0 0 101 102  0.000000e+00  0.000000e+00  3.747416e+03  3.747416e+03 0.0 0.0 9.0
21 -1 0 0 103 101  0.000000e+00  0.000000e+00 -1.444178e+03  1.444178e+03 0.0 0.0 9.0
22  1 1 2   0   0 -1.265398e+03 -1.917232e+03  1.561482e+03  2.777631e+03 0.0 0.0 9.0
21  1 1 2 103 102  1.265398e+03  1.917232e+03  7.417560e+02  2.413962e+03 0.0 0.0 9.0
#pdf 21 21 5.765255e-01 2.221812e-01 5000.0 9.270400e-04 9.459612e-02
</event>
<event>
4 6 1.0 5000.0 7.905138e-03 7.739137e-02
21 -1 0 0 103 101  0.000000e+00  0.000000e+00  2.817325e+03  2.817325e+03 0.0 0.0 9.0
21 -1 0 0 101 102  0.000000e+00  0.000000e+00 -1.971207e+03  1.971207e+03 0.0 0.0 9.0
21  1 1 2 103 102 -1.784356e+03 -1.013842e+03 -7.537881e+02  2.186321e+03 0.0 0.0 9.0
22  1 1 2   0   0  1.784356e+03  1.013842e+03  1.599906e+03  2.602211e+03 0.0 0.0 9.0
#pdf 21 21 4.334347e-01 3.032626e-01 5000.0 6.844056e-03 3.463126e-02
</event>
<event>
4 6 1.0 5000.0 7.905138e-03 7.739137e-02
21 -1 0 0 101 102  0.000000e+00  0.000000e+00  3.579489e+03  3.579489e+03 0.0 0.0 9.0
21 -1 0 0 103 101  0.000000e+00  0.000000e+00 -1.571154e+03  1.571154e+03 0.0 0.0 9.0
21  1 1 2 103 102 -4.612504e+02 -7.253701e+02 -1.396016e+03  1.639444e+03 0.0 0.0 9.0
22  1 1 2   0   0  4.612504e+02  7.253701e+02  3.404351e+03  3.511199e+03 0.0 0.0 9.0
#pdf 21 21 5.506906e-01 2.417160e-01 5000.0 1.367520e-03 7.400211e-02
</event>
<event>
4 6 1.0 5000.0 7.905138e-03 7.739137e-02
21 -1 0 0 103 101  0.000000e+00  0.000000e+00  2.780848e+03  2.780848e+03 0.0 0.0 9.0
21 -1 0 0 101 102  0.000000e+00  0.000000e+00 -2.359645e+03  2.359645e+03 0.0 0.0 9.0
22  1 1 2   0   0  1.917858e+03  9.189304e+02 -1.222223e+03  2.452843e+03 0.0 0.0 9.0
21  1 1 2 103 102 -1.917858e+03 -9.189304e+02  1.643426e+03  2.687650e+03 0.0 0.0 9.0
#pdf 21 21 4.278228e-01 3.630223e-01 5000.0 7.353706e-03 1.662141e-02
</event>
<event>
4 6 1.0 5000.0 7.905138e-03 7.739137e-02
21 -1 0 0 103 101  0.000000e+00  0.000000e+00  2.068949e+03  2.068949e+03 0.0 0.0 9.0
21 -1 0 0 101 102  0.000000e+00  0.000000e+00 -2.998984e+03  2.998984e+03 0.0 0.0 9.0
21  1 1 2 103 102 -1.820659e+03 -8.651455e+02 -1.953675e+03  2.807155e+03 0.0 0.0 9.0
22  1 1 2   0   0  1.820659e+03  8.651455e+02  1.023641e+03  2.260778e+03 0.0 0.0 9.0
#pdf 21 21 3.182999e-01 4.613821e-01 5000.0 2.878671e-02 4.747382e-03
</event>
<event>
4 6 1.0 5000.0 7.905138e-03 7.739137e-02
21 -1 0 0 103 101  0.000000e+00  0.000000e+00  2.442733e+03  2.442733e+03 0.0 0.0 9.0
21 -1 0 0 101 102  0.000000e+00  0.000000e+00 -2.446309e+03  2.446309e+03 0.0 0.0 9.0
22  1 1 2   0   0 -1.278762e+03 -2.052992e+03  3.527129e+02  2.444262e+03 0.0 0.0 9.0
21  1 1 2 103 102  1.278762e+03  2.052992e+03 -3.562893e+02  2.444780e+03 0.0 0.0 9.0
#pdf 21 21 3.758050e-01 3.763552e-01 5000.0 1.419363e-02 1.409803e-02
</event>
<event>
4 6 1.0 5000.0 7.905138e-03 7.739137e-02
21 -1 0 0 101 102  0.000000e+00  0.000000e+00  5.102189e+03  5.102189e+03 0.0 0.0 9.0
21 -1 0 0 103 101  0.000000e+00  0.000000e+00 -1.195555e+03  1.195555e+03 0.0 0.0 9.0
22  1 1 2   0   0  1.051350e+02 -1.698444e+03 -3.288667e+02  1.733181e+03 0.0 0.0 9.0
21  1 1 2 103 102 -1.051350e+02  1.698444e+03  4.235500e+03  4.564562e+03 0.0 0.0 9.0
#pdf 21 21 7.849521e-01 1.839315e-01 5000.0 1.544152e-05 1.556874e-01
</event>
<event>
4 6 1.0 5000.0 7.905138e-03 7.739137e-02
21 -1 0 0 103 101  0.000000e+00  0.000000e+00  2.389351e+03  2.389351e+03 0.0 0.0 9.0
21 -1 0 0 101 102  0.000000e+00  0.000000e+00 -2.211227e+03  2.211227e+03 0.0 0.0 9.0
21  1 1 2 103 102  8.774133e+01  2.294058e+03 -2.501774e+01  2.295872e+03 0.0 0.0 9.0
22  1 1 2   0   0 -8.774133e+01 -2.294058e+03  2.031417e+02  2.304706e+03 0.0 0.0 9.0
#pdf 21 21 3.675924e-01 3.401887e-01 5000.0 1.570272e-02 2.201196e-02
</event>
<event>
4 6 1.0 5000.0 7.905138e-03 7.739137e-02
21 -1 0 0 103 101  0.000000e+00  0.000000e+00  3.427439e+03  3.427439e+03 0.0 0.0 9.0
21 -1 0 0 101 102  0.000000e+00  0.000000e+00 -1.328556e+03  1.328556e+03 0.0 0.0 9.0
21  1 1 2 103 102 -1.124093e+03 -1.790410e+03  7.257132e+02  2.235132e+03 0.0 0.0 9.0
22  1 1 2   0   0  1.124093e+03  1.790410e+03  1.373171e+03  2.520863e+03 0.0 0.0 9.0
#pdf 21 21 5.272983e-01 2.043932e-01 5000.0 1.922640e-03 1.187736e-01
</event>
<event>
4 6 1.0 5000.0 7.905138e-03 7.739137e-02
21 -1 0 0 103 101  0.000000e+00  0.000000e+00  3.762907e+03  3.762907e+03 0.0 0.0 9.0
21 -1 0 0 101 102  0.000000e+00  0.000000e+00 -1.617937e+03  1.617937e+03 0.0 0.0 9.0
22  1 1 2   0   0  2.399992e+03  1.001366e+02  1.687516e+03  2.935592e+03 0.0 0.0 9.0
21  1 1 2 103 102 -2.399992e+03 -1.001366e+02  4.574541e+02  2.445251e+03 0.0 0.0 9.0
#pdf 21 21 5.789087e-01 2.489133e-01 5000.0 8.936756e-04 6.763225e-02
</event>
<event>
4 6 1.0 5000.0 7.905138e-03 7.739137e-02
21 -1 0 0 103 101  0.000000e+00  0.000000e+00  2.505376e+03  2.505376e+03 0.0 0.0 9.0
21 -1 0 0 101 102  0.000000e+00  0.000000e+00 -2.472975e+03  2.472975e+03 0.0 0.0 9.0
22  1 1 2   0   0  2.537093e+01 -1.382925e+03 -2.053290e+03  2.475707e+03 0.0 0.0 9.0
21  1 1 2 103 102 -2.537093e+01  1.382925e+03  2.085690e+03  2.502644e+03 0.0 0.0 9.0
#pdf 21 21 3.854424e-01 3.804577e-01 5000.0 1.258644e-02 1.339908e-02
</event>
<event>
4 6 1.0 5000.0 7.905138e-03 7.739137e-02
21 -1 0 0 103 101  0.000000e+00  0.000000e+00  3.186222e+03  3.186222e+03 0.0 0.0 9.0
21 -1 0 0 101 102  0.000000e+00  0.000000e+00 -2.001443e+03  2.001443e+03 0.0 0.0 9.0
22  1 1 2   0   0  3.559147e+02  1.612715e+03 -1.369841e+03  2.145691e+03 0.0 0.0 9.0
21  1 1 2 103 102 -3.559147e+02 -1.612715e+03  2.554620e+03  3.041974e+03 0.0 0.0 9.0
#pdf 21 21 4.901880e-01 3.079144e-01 5000.0 3.224189e-03 3.272608e-02
</event>
<event>
4 6 1.0 5000.0 7.905138e-03 7.739137e-02
21 -1 0 0 103 101  0.000000e+00  0.000000e+00  2.791865e+03  2.791865e+03 0.0 0.0 9.0
21 -1 0 0 101 102  0.000000e+00  0.000000e+00 -2.302696e+03  2.302696e+03 0.0 0.0 9.0
21  1 1 2 103 102 -2.247086e+03 -3.544272e+02  1.369516e+03  2.655294e+03 0.0 0.0 9.0
22  1 1 2   0   0  2.247086e+03  3.544272e+02 -8.803459e+02  2.439267e+03 0.0 0.0 9.0
#pdf 21 21 4.295177e-01 3.542609e-01 5000.0 7.195334e-03 1.851443e-02
</event>
<event>
4 6 1.0 5000.0 7.905138e-03 7.739137e-02
21 -1 0 0 103 101  0.000000e+00  0.000000e+00  2.447914e+03  2.447914e+03 0.0 0.0 9.0
21 -1 0 0 101 102  0.000000e+00  0.000000e+00 -1.934789e+03  1.934789e+03 0.0 0.0 9.0
21  1 1 2 103 102 -1.205404e+03  1.701981e+03  8.825265e+02  2.264639e+03 0.0 0.0 9.0
22  1 1 2   0   0  1.205404e+03 -1.701981e+03 -3.694010e+02  2.118064e+03 0.0 0.0 9.0
#pdf 21 21 3.766022e-01 2.976598e-01 5000.0 1.405526e-02 3.709014e-02
</event>
<event>
4 6 1.0 5000.0 7.905138e-03 7.739137e-02
21 -1 0 0 101 102  0.000000e+00  0.000000e+00  1.996860e+03  1.996860e+03 0.0 0.0 9.0
21 -1 0 0 103 101  0.000000e+00  0.000000e+00 -3.200007e+03  3.200007e+03 0.0 0.0 9.0
21  1 1 2 103 102  2.172456e+03  7.486129e+02 -1.684552e+03  2.849158e+03 0.0 0.0 9.0
22  1 1 2   0   0 -2.172456e+03 -7.486129e+02  4.814048e+02  2.347709e+03 0.0 0.0 9.0
#pdf 21 21 3.072092e-01 4.923087e-01 5000.0 3.301047e-02 3.132451e-03
</event>
<event>
4 6 1.0 5000.0 7.905138e-03 7.739137e-02
21 -1 0 0 101 102  0.000000e+00  0.000000e+00  3.406877e+03  3.406877e+03 0.0 0.0 9.0
21 -1 0 0 103 101  0.000000e+00  0.000000e+00 -1.872333e+03  1.872333e+03 0.0 0.0 9.0
21  1 1 2 103 102 -3.610938e+02  2.296425e+03 -2.646284e+02  2.339655e+03 0.0 0.0 9.0
22  1 1 2   0   0  3.610938e+02 -2.296425e+03  1.799173e+03  2.939554e+03 0.0 0.0 9.0
#pdf 21 21 5.241349e-01 2.880512e-01 5000.0 2.010686e-03 4.171146e-02
</event>
<event>
4 6 1.0 5000.0 7.905138e-03 7.739137e-02
21 -1 0 0 103 101  0.000000e+00  0.000000e+00  1.899406e+03  1.899406e+03 0.0 0.0 9.0
21 -1 0 0 101 102  0.000000e+00  0.000000e+00 -3.224748e+03  3.224748e+03 0.0 0.0 9.0
22  1 1 2   0   0 -1.365403e+03 -8.469734e+02  1.286036e+03  2.058052e+03 0.0 0.0 9.0
21  1 1 2 103 102  1.365403e+03  8.469734e+02 -2.611378e+03  3.066103e+03 0.0 0.0 9.0
#pdf 21 21 2.922164e-01 4.961151e-01 5000.0 3.965895e-02 2.973575e-03
</event>
<event>
4 6 1.0 5000.0 7.905138e-03 7.739137e-02
21 -1 0 0 103 101  0.000000e+00  0.000000e+00  1.860287e+03  1.860287e+03 0.0 0.0 9.0
21 -1 0 0 101 102  0.000000e+00  0.000000e+00 -3.268718e+03  3.268718e+03 0.0 0.0 9.0
22  1 1 2   0   0  1.278208e+02 -5.691517e+02 -3.195932e+03  3.248731e+03 0.0 0.0 9.0
21  1 1 2 103 102 -1.278208e+02  5.691517e+02  1.787501e+03  1.880274e+03 0.0 0.0 9.0
#pdf 21 21 2.861980e-01 5.028798e-01 5000.0 4.265868e-02 2.708115e-03
</event>
<event>
4 6 1.0 5000.0 7.905138e-03 7.739137e-02
21 -1 0 0 101 102  0.000000e+00  0.000000e+00  3.373567e+03  3.373567e+03 0.0 0.0 9.0
21 -1 0 0 103 101  0.000000e+00  0.000000e+00 -1.828716e+03  1.828716e+03 0.0 0.0 9.0
21  1 1 2 103 102  1.865074e+03  7.396438e+02 -7.608870e+02  2.145815e+03 0.0 0.0 9.0
22  1 1 2   0   0 -1.865074e+03 -7.396438e+02  2.305738e+03  3.056468e+03 0.0 0.0 9.0
#pdf 21 21 5.190103e-01 2.813410e-01 5000.0 2.161699e-03 4.527006e-02
</event>
<event>
4 6 1.0 5000.0 7.905138e-03 7.739137e-02
21 -1 0 0 101 102  0.000000e+00  0.000000e+00  2.947273e+03  2.947273e+03 0.0 0.0 9.0
21 -1 0 0 103 101  0.000000e+00  0.000000e+00 -2.313885e+03  2.313885e+03 0.0 0.0 9.0
22  1 1 2   0   0 -1.594705e+03 -1.301398e+03  1.935619e+03  2.825481e+03 0.0 0.0 9.0
21  1 1 2 103 102  1.594705e+03  1.301398e+03 -1.302231e+03  2.435678e+03 0.0 0.0 9.0
#pdf 21 21 4.534267e-01 3.559823e-01 5000.0 5.276573e-03 1.812190e-02
</event>
<event>
4 6 1.0 5000.0 7.905138e-03 7.739137e-02
21 -1 0 0 101 102  0.000000e+00  0.000000e+00  2.689389e+03  2.689389e+03 0.0 0.0 9.0
21 -1 0 0 103 101  0.000000e+00  0.000000e+00 -2.315605e+03  2.315605e+03 0.0 0.0 9.0
22  1 1 2   0   0  1.256844e+03 -1.172780e+03 -1.627177e+03  2.367018e+03 0.0 0.0 9.0
21  1 1 2 103 102 -1.256844e+03  1.172780e+03  2.000961e+03  2.637976e+03 0.0 0.0 9.0
#pdf 21 21 4.137522e-01 3.562469e-01 5000.0 8.803290e-03 1.806265e-02
</event>
<event>
4 6 1.0 5000.0 7.905138e-03 7.739137e-02
21 -1 0 0 101 102  0.000000e+00  0.000000e+00  2.814421e+03  2.814421e+03 0.0 0.0 9.0
21 -1 0 0 103 101  0.000000e+00  0.000000e+00 -1.687878e+03  1.687878e+03 0.0 0.0 9.0
21  1 1 2 103 102 -4.343921e+02 -2.049385e+03 -5.792338e+01  2.095717e+03 0.0 0.0 9.0
22  1 1 2   0   0  4.343921e+02  2.049385e+03  1.184466e+03  2.406582e+03 0.0 0.0 9.0
#pdf 21 21 4.329878e-01 2.596735e-01 5000.0 6.883199e-03 5.914931e-02
</event>
<event>
4 6 1.0 5000.0 7.905138e-03 7.739137e-02
21 -1 0 0 103 101  0.000000e+00  0.000000e+00  4.414550e+03  4.414550e+03 0.0 0.0 9.0
21 -1 0 0 101 102  0.000000e+00  0.000000e+00 -1.387735e+03  1.387735e+03 0.0 0.0 9.0
21  1 1 2 103 102 -1.040070e+03  1.341696e+03  3.624635e+03  4.002483e+03 0.0 0.0 9.0
22  1 1 2   0   0  1.040070e+03 -1.341696e+03 -5.978195e+02  1.799801e+03 0.0 0.0 9.0
#pdf 21 21 6.791615e-01 2.134976e-01 5000.0 1.622756e-04 1.057128e-01
</event>
<event>
4 6 1.0 5000.0 7.905138e-03 7.739137e-02
21 -1 0 0 101 102  0.000000e+00  0.000000e+00  1.466829e+03  1.466829e+03 0.0 0.0 9.0
21 -1 0 0 103 101  0.000000e+00  0.000000e+00 -3.902051e+03  3.902051e+03 0.0 0.0 9.0
21  1 1 2 103 102  1.028462e+03  5.288841e+02  1.132353e+03  1.618541e+03 0.0 0.0 9.0
22  1 1 2   0   0 -1.028462e+03 -5.288841e+02 -3.567575e+03  3.750339e+03 0.0 0.0 9.0
#pdf 21 21 2.256660e-01 6.003156e-01 5000.0 9.047366e-02 6.386565e-04
</event>
<event>
4 6 1.0 5000.0 7.905138e-03 7.739137e-02
21 -1 0 0 101 102  0.000000e+00  0.000000e+00  3.551773e+03  3.551773e+03 0.0 0.0 9.0
21 -1 0 0 103 101  0.000000e+00  0.000000e+00 -1.696158e+03  1.696158e+03 0.0 0.0 9.0
22  1 1 2   0   0 -1.578266e+03 -1.630372e+03 -7.239696e+01  2.270303e+03 0.0 0.0 9.0
21  1 1 2 103 102  1.578266e+03  1.630372e+03  1.928013e+03  2.977628e+03 0.0 0.0 9.0
#pdf 21 21 5.464267e-01 2.609473e-01 5000.0 1.457297e-03 5.821395e-02
</event>
<event>
4 6 1.0 5000.0 7.905138e-03 7.739137e-02
21 -1 0 0 101 102  0.000000e+00  0.000000e+00  2.387615e+03  2.387615e+03 0.0 0.0 9.0
21 -1 0 0 103 101  0.000000e+00  0.000000e+00 -2.431115e+03  2.431115e+03 0.0 0.0 9.0
22  1 1 2   0   0 -1.740656e+03 -1.109481e+03  1.220772e+03  2.398149e+03 0.0 0.0 9.0
21  1 1 2 103 102  1.740656e+03  1.109481e+03 -1.264271e+03  2.420582e+03 0.0 0.0 9.0
#pdf 21 21 3.673254e-01 3.740177e-01 5000.0 1.575578e-02 1.450694e-02
</event>
<event>
4 6 1.0 5000.0 7.905138e-03 7.739137e-02
21 -1 0 0 101 102  0.000000e+00  0.000000e+00  2.483111e+03  2.483111e+03 0.0 0.0 9.0
21 -1 0 0 103 101  0.000000e+00  0.000000e+00 -1.967202e+03  1.967202e+03 0.0 0.0 9.0
22  1 1 2   0   0  2.077976e+03 -4.351544e+02  8.764843e+02  2.296860e+03 0.0 0.0 9.0
21  1 1 2 103 102 -2.077976e+03  4.351544e+02 -3.605757e+02  2.153453e+03 0.0 0.0 9.0
#pdf 21 21 3.820171e-01 3.026465e-01 5000.0 1.314029e-02 3.488816e-02
</event>
<event>
4 6 1.0 5000.0 7.905138e-03 7.739137e-02
21 -1 0 0 103 101  0.000000e+00  0.000000e+00  1.638616e+03  1.638616e+03 0.0 0.0 9.0
21 -1 0 0 101 102  0.000000e+00  0.000000e+00 -4.253022e+03  4.253022e+03 0.0 0.0 9.0
21  1 1 2 103 102 -2.480651e+03 -7.123262e+02 -1.926524e+03  3.220642e+03 0.0 0.0 9.0
22  1 1 2   0   0  2.480651e+03  7.123262e+02 -6.878821e+02  2.670996e+03 0.0 0.0 9.0
#pdf 21 21 2.520947e-01 6.543111e-01 5000.0 6.503092e-02 2.568132e-04
</event>
<event>
4 6 1.0 5000.0 7.905138e-03 7.739137e-02
21 -1 0 0 103 101  0.000000e+00  0.000000e+00  1.900645e+03  1.900645e+03 0.0 0.0 9.0
21 -1 0 0 101 102  0.000000e+00  0.000000e+00 -2.956959e+03  2.956959e+03 0.0 0.0 9.0
22  1 1 2   0   0 -6.857194e+02 -1.484843e+03 -2.286377e+03  2.811137e+03 0.0 0.0 9.0
21  1 1 2 103 102  6.857194e+02  1.484843e+03  1.230064e+03  2.046467e+03 0.0 0.0 9.0
#pdf 21 21 2.924070e-01 4.549168e-01 5000.0 3.956715e-02 5.173857e-03
</event>
<event>
4 6 1.0 5000.0 7.905138e-03 7.739137e-02
21 -1 0 0 101 102  0.000000e+00  0.000000e+00  2.051264e+03  2.051264e+03 0.0 0.0 9.0
21 -1 0 0 103 101  0.000000e+00  0.000000e+00 -3.072803e+03  3.072803e+03 0.0 0.0 9.0
22  1 1 2   0   0 -1.202944e+02 -9.027029e+02 -2.898309e+03  3.038015e+03 0.0 0.0 9.0
21  1 1 2 103 102  1.202944e+02  9.027029e+02  1.876771e+03  2.086052e+03 0.0 0.0 9.0
#pdf 21 21 3.155791e-01 4.727389e-01 5000.0 2.976749e-02 4.082669e-03
</event>
<event>
4 6 1.0 5000.0 7.905138e-03 7.739137e-02
21 -1 0 0 103 101  0.000000e+00  0.000000e+00  1.784805e+03  1.784805e+03 0.0 0.0 9.0
21 -1 0 0 101 102  0.000000e+00  0.000000e+00 -3.560181e+03  3.560181e+03 0.0 0.0 9.0
21  1 1 2 103 102  3.419120e+02  6.527294e+02 -3.443452e+03  3.521409e+03 0.0 0.0 9.0
22  1 1 2   0   0 -3.419120e+02 -6.527294e+02  1.668075e+03  1.823577e+03 0.0 0.0 9.0
#pdf 21 21 2.745853e-01 5.477202e-01 5000.0 4.919370e-02 1.429636e-03
</event>
<event>
4 6 1.0 5000.0 7.905138e-03 7.739137e-02
21 -1 0 0 103 101  0.000000e+00  0.000000e+00  2.010895e+03  2.010895e+03 0.0 0.0 9.0
21 -1 0 0 101 102  0.000000e+00  0.000000e+00 -2.928060e+03  2.928060e+03 0.0 0.0 9.0
22  1 1 2   0   0 -1.554723e+03  9.904722e+02 -2.064431e+03  2.767684e+03 0.0 0.0 9.0
21  1 1 2 103 102  1.554723e+03 -9.904722e+02  1.147266e+03  2.171271e+03 0.0 0.0 9.0
#pdf 21 21 3.093684e-01 4.504708e-01 5000.0 3.214544e-02 5.483889e-03
</event>
<event>
4 6 1.0 5000.0 7.905138e-03 7.739137e-02
21 -1 0 0 101 102  0.000000e+00  0.000000e+00  1.705328e+03  1.705328e+03 0.0 0.0 9.0
21 -1 0 0 103 101  0.000000e+00  0.000000e+00 -3.167808e+03  3.167808e+03 0.0 0.0 9.0
21  1 1 2 103 102  7.299263e+02  1.306013e+03 -2.595868e+03  2.996163e+03 0.0 0.0 9.0
22  1 1 2   0   0 -7.299263e+02 -1.306013e+03  1.133388e+03  1.876973e+03 0.0 0.0 9.0
#pdf 21 21 2.623582e-01 4.873552e-01 5000.0 5.719842e-02 3.350655e-03
</event>
<event>
4 6 1.0 5000.0 7.905138e-03 7.739137e-02
21 -1 0 0 101 102  0.000000e+00  0.000000e+00  1.962597e+03  1.962597e+03 0.0 0.0 9.0
21 -1 0 0 103 101  0.000000e+00  0.000000e+00 -3.345709e+03  3.345709e+03 0.0 0.0 9.0
22  1 1 2   0   0 -7.182914e+02 -3.920546e+02 -3.206731e+03  3.309497e+03 0.0 0.0 9.0
21  1 1 2 103 102  7.182914e+02  3.920546e+02  1.823619e+03  1.998808e+03 0.0 0.0 9.0
#pdf 21 21 3.019380e-01 5.147244e-01 5000.0 3.518467e-02 2.296674e-03
</event>
<event>
4 6 1.0 5000.0 7.905138e-03 7.739137e-02
21 -1 0 0 101 102  0.000000e+00  0.000000e+00  2.241987e+03  2.241987e+03 0.0 0.0 9.0
21 -1 0 0 103 101  0.000000e+00  0.000000e+00 -2.921843e+03  2.921843e+03 0.0 0.0 9.0
22  1 1 2   0   0  5.790699e+02 -9.355507e+02  1.991242e+03  2.274999e+03 0.0 0.0 9.0
21  1 1 2 103 102 -5.790699e+02  9.355507e+02 -2.671098e+03  2.888831e+03 0.0 0.0 9.0
#pdf 21 21 3.449210e-01 4.495143e-01 5000.0 2.077437e-02 5.551794e-03
</event>
<event>
4 6 1.0 5000.0 7.905138e-03 7.739137e-02
21 -1 0 0 101 102  0.000000e+00  0.000000e+00  2.275176e+03  2.275176e+03 0.0 0.0 9.0
21 -1 0 0 103 101  0.000000e+00  0.000000e+00 -2.110152e+03  2.110152e+03 0.0 0.0 9.0
21  1 1 2 103 102 -1.406258e+03  7.187244e+02  1.602417e+03  2.249859e+03 0.0 0.0 9.0
22  1 1 2   0   0  1.406258e+03 -7.187244e+02 -1.437393e+03  2.135468e+03 0.0 0.0 9.0
#pdf 21 21 3.500270e-01 3.246387e-01 5000.0 1.951325e-02 2.663706e-02
</event>
<event>
4 6 1.0 5000.0 7.905138e-03 7.739137e-02
21 -1 0 0 103 101  0.000000e+00  0.000000e+00  2.456674e+03  2.456674e+03 0.0 0.0 9.0
21 -1 0 0 101 102  0.000000e+00  0.000000e+00 -2.493193e+03  2.493193e+03 0.0 0.0 9.0
21  1 1 2 103 102  4.544770e+02  1.735240e+03  1.686883e+03  2.462353e+03 0.0 0.0 9.0
22  1 1 2   0   0 -4.544770e+02 -1.735240e+03 -1.723403e+03  2.487514e+03 0.0 0.0 9.0
#pdf 21 21 3.779498e-01 3.835682e-01 5000.0 1.382339e-02 1.288691e-02
</event>
<event>
4 6 1.0 5000.0 7.905138e-03 7.739137e-02
21 -1 0 0 103 101  0.000000e+00  0.000000e+00  1.630605e+03  1.630605e+03 0.0 0.0 9.0
21 -1 0 0 101 102  0.000000e+00  0.000000e+00 -3.745474e+03  3.745474e+03 0.0 0.0 9.0
21  1 1 2 103 102  1.746498e+03  1.215100e+03 -2.424936e+03  3.225994e+03 0.0 0.0 9.0
22  1 1 2   0   0 -1.746498e+03 -1.215100e+03  3.100664e+02  2.150085e+03 0.0 0.0 9.0
#pdf 21 21 2.508623e-01 5.762268e-01 5000.0 6.603099e-02 9.313056e-04
</event>
<event>
4 6 1.0 5000.0 7.905138e-03 7.739137e-02
21 -1 0 0 103 101  0.000000e+00  0.000000e+00  3.287801e+03  3.287801e+03 0.0 0.0 9.0
21 -1 0 0 101 102  0.000000e+00  0.000000e+00 -1.925230e+03  1.925230e+03 0.0 0.0 9.0
22  1 1 2   0   0 -1.912108e+03 -1.527120e+03  7.584032e+01  2.448266e+03 0.0 0.0 9.0
21  1 1 2 103 102  1.912108e+03  1.527120e+03  1.286730e+03  2.764765e+03 0.0 0.0 9.0
#pdf 21 21 5.058155e-01 2.961892e-01 5000.0 2.600189e-03 3.777491e-02
</event>
<event>
4 6 1.0 5000.0 7.905138e-03 7.739137e-02
21 -1 0 0 103 101  0.000000e+00  0.000000e+00  2.047309e+03  2.047309e+03 0.0 0.0 9.0
21 -1 0 0 101 102  0.000000e+00  0.000000e+00 -2.385361e+03  2.385361e+03 0.0 0.0 9.0
21  1 1 2 103 102  8.473699e+02 -2.024930e+03  8.704829e+01  2.196806e+03 0.0 0.0 9.0
22  1 1 2   0   0 -8.473699e+02  2.024930e+03 -4.251008e+02  2.235864e+03 0.0 0.0 9.0
#pdf 21 21 3.149706e-01 3.669786e-01 5000.0 2.999232e-02 1.582479e-02
</event>
<event>
4 6 1.0 5000.0 7.905138e-03 7.739137e-02
21 -1 0 0 103 101  0.000000e+00  0.000000e+00  2.447772e+03  2.447772e+03 0.0 0.0 9.0
21 -1 0 0 101 102  0.000000e+00  0.000000e+00 -2.606533e+03  2.606533e+03 0.0 0.0 9.0
21  1 1 2 103 102  1.404487e+03 -1.963470e+03  6.642246e+02  2.503795e+03 0.0 0.0 9.0
22  1 1 2   0   0 -1.404487e+03  1.963470e+03 -8.229847e+02  2.550510e+03 0.0 0.0 9.0
#pdf 21 21 3.765804e-01 4.010050e-01 5000.0 1.405904e-02 1.034809e-02
</event>
<event>
4 6 1.0 5000.0 7.905138e-03 7.739137e-02
21 -1 0 0 103 101  0.000000e+00  0.000000e+00  2.449722e+03  2.449722e+03 0.0 0.0 9.0
21 -1 0 0 101 102  0.000000e+00  0.000000e+00 -2.536853e+03  2.536853e+03 0.0 0.0 9.0
22  1 1 2   0   0 -1.252864e+03  1.592258e+03 -1.496243e+03  2.518670e+03 0.0 0.0 9.0
21  1 1 2 103 102  1.252864e+03 -1.592258e+03  1.409112e+03  2.467904e+03 0.0 0.0 9.0
#pdf 21 21 3.768802e-01 3.902850e-01 5000.0 1.400721e-02 1.184092e-02
</event>
<event>
4 6 1.0 5000.0 7.905138e-03 7.739137e-02
21 -1 0 0 101 102  0.000000e+00  0.000000e+00  2.771685e+03  2.771685e+03 0.0 0.0 9.0
21 -1 0 0 103 101  0.000000e+00  0.000000e+00 -2.164552e+03  2.164552e+03 0.0 0.0 9.0
22  1 1 2   0   0  9.366993e+02  2.218319e+03  7.554526e+02  2.523698e+03 0.0 0.0 9.0
21  1 1 2 103 102 -9.366993e+02 -2.218319e+03 -1.483205e+02  2.412539e+03 0.0 0.0 9.0
#pdf 21 21 4.264130e-01 3.330081e-01 5000.0 7.488693e-03 2.404306e-02
</event>
<event>
4 6 1.0 5000.0 7.905138e-03 7.739137e-02
21 -1 0 0 101 102  0.000000e+00  0.000000e+00  3.479655e+03  3.479655e+03 0.0 0.0 9.0
21 -1 0 0 103 101  0.000000e+00  0.000000e+00 -1.827588e+03  1.827588e+03 0.0 0.0 9.0
21  1 1 2 103 102  2.434603e+03  3.548473e+02  2.437828e+02  2.472376e+03 0.0 0.0 9.0
22  1 1 2   0   0 -2.434603e+03 -3.548473e+02  1.408284e+03  2.834868e+03 0.0 0.0 9.0
#pdf 21 21 5.353315e-01 2.811674e-01 5000.0 1.712655e-03 4.536711e-02
</event>
<event>
4 6 1.0 5000.0 7.905138e-03 7.739137e-02
21 -1 0 0 103 101  0.000000e+00  0.000000e+00  1.995888e+03  1.995888e+03 0.0 0.0 9.0
21 -1 0 0 101 102  0.000000e+00  0.000000e+00 -3.056345e+03  3.056345e+03 0.0 0.0 9.0
21  1 1 2 103 102  1.926528e+03  1.544489e+03 -4.726647e+02  2.514034e+03 0.0 0.0 9.0
22  1 1 2   0   0 -1.926528e+03 -1.544489e+03 -5.877926e+02  2.538199e+03 0.0 0.0 9.0
#pdf 21 21 3.070597e-01 4.702070e-01 5000.0 3.307097e-02 4.223121e-03
</event>
<event>
4 6 1.0 5000.0 7.905138e-03 7.739137e-02
21 -1 0 0 101 102  0.000000e+00  0.000000e+00  2.134456e+03  2.134456e+03 0.0 0.0 9.0
21 -1 0 0 103 101  0.000000e+00  0.000000e+00 -3.000544e+03  3.000544e+03 0.0 0.0 9.0
22  1 1 2   0   0  1.145290e+03  1.342947e+02 -2.718519e+03  2.952977e+03 0.0 0.0 9.0
21  1 1 2 103 102 -1.145290e+03 -1.342947e+02  1.852431e+03  2.182023e+03 0.0 0.0 9.0
#pdf 21 21 3.283778e-01 4.616222e-01 5000.0 2.544649e-02 4.732266e-03
</event>
<event>
4 6 1.0 5000.0 7.905138e-03 7.739137e-02
21 -1 0 0 103 101  0.000000e+00  0.000000e+00  2.583951e+03  2.583951e+03 0.0 0.0 9.0
21 -1 0 0 101 102  0.000000e+00  0.000000e+00 -2.428776e+03  2.428776e+03 0.0 0.0 9.0
21  1 1 2 103 102  1.623945e+03 -1.109757e+03 -1.474633e+03  2.458313e+03 0.0 0.0 9.0
22  1 1 2   0   0 -1.623945e+03  1.109757e+03  1.629808e+03  2.554415e+03 0.0 0.0 9.0
#pdf 21 21 3.975309e-01 3.736579e-01 5000.0 1.081015e-02 1.457050e-02
</event>
<event>
4 6 1.0 5000.0 7.905138e-03 7.739137e-02
21 -1 0 0 103 101  0.000000e+00  0.000000e+00  2.554966e+03  2.554966e+03 0.0 0.0 9.0
21 -1 0 0 101 102  0.000000e+00  0.000000e+00 -2.345104e+03  2.345104e+03 0.0 0.0 9.0
22  1 1 2   0   0  1.863358e+03  1.200951e+03 -9.339392e+02  2.405541e+03 0.0 0.0 9.0
21  1 1 2 103 102 -1.863358e+03 -1.200951e+03  1.143801e+03  2.494528e+03 0.0 0.0 9.0
#pdf 21 21 3.930716e-01 3.607852e-01 5000.0 1.143307e-02 1.708352e-02
</event>
<event>
4 6 1.0 5000.0 7.905138e-03 7.739137e-02
21 -1 0 0 103 101  0.000000e+00  0.000000e+00  2.686157e+03  2.686157e+03 0.0 0.0 9.0
21 -1 0 0 101 102  0.000000e+00  0.000000e+00 -2.228440e+03  2.228440e+03 0.0 0.0 9.0
21  1 1 2 103 102 -1.555510e+03 -1.851494e+02  2.116437e+03  2.633096e+03 0.0 0.0 9.0
22  1 1 2   0   0  1.555510e+03  1.851494e+02 -1.658721e+03  2.281501e+03 0.0 0.0 9.0
#pdf 21 21 4.132549e-01 3.428370e-01 5000.0 8.859141e-03 2.131039e-02
</event>
<event>
4 6 1.0 5000.0 7.905138e-03 7.739137e-02
21 -1 0 0 101 102  0.000000e+00  0.000000e+00  2.824436e+03  2.824436e+03 0.0 0.0 9.0
21 -1 0 0 103 101  0.000000e+00  0.000000e+00 -1.761193e+03  1.761193e+03 0.0 0.0 9.0
21  1 1 2 103 102 -3.732452e+02 -4.300458e+02  2.748449e+03  2.806817e+03 0.0 0.0 9.0
22  1 1 2   0   0  3.732452e+02  4.300458e+02 -1.685206e+03  1.778812e+03 0.0 0.0 9.0
#pdf 21 21 4.345286e-01 2.709528e-01 5000.0 6.749137e-03 5.143919e-02
</event>
<event>
4 6 1.0 5000.0 7.905138e-03 7.739137e-02
21 -1 0 0 101 102  0.000000e+00  0.000000e+00  3.004273e+03  3.004273e+03 0.0 0.0 9.0
21 -1 0 0 103 101  0.000000e+00  0.000000e+00 -1.976145e+03  1.976145e+03 0.0 0.0 9.0
21  1 1 2 103 102 -1.627463e+03 -5.889313e+01  2.366356e+03  2.872585e+03 0.0 0.0 9.0
22  1 1 2   0   0  1.627463e+03  5.889313e+01 -1.338228e+03  2.107833e+03 0.0 0.0 9.0
#pdf 21 21 4.621959e-01 3.040223e-01 5000.0 4.696380e-03 3.431579e-02
</event>
<event>
4 6 1.0 5000.0 7.905138e-03 7.739137e-02
21 -1 0 0 101 102  0.000000e+00  0.000000e+00  2.238735e+03  2.238735e+03 0.0 0.0 9.0
21 -1 0 0 103 101  0.000000e+00  0.000000e+00 -2.386484e+03  2.386484e+03 0.0 0.0 9.0
22  1 1 2   0   0  2.223012e+03 -2.540308e+02  5.064121e+02  2.294073e+03 0.0 0.0 9.0
21  1 1 2 103 102 -2.223012e+03  2.540308e+02 -6.541608e+02  2.331146e+03 0.0 0.0 9.0
#pdf 21 21 3.444208e-01 3.671513e-01 5000.0 2.090182e-02 1.579041e-02
</event>
<event>
4 6 1.0 5000.0 7.905138e-03 7.739137e-02
21 -1 0 0 101 102  0.000000e+00  0.000000e+00  2.931959e+03  2.931959e+03 0.0 0.0 9.0
21 -1 0 0 103 101  0.000000e+00  0.000000e+00 -2.157103e+03  2.157103e+03 0.0 0.0 9.0
22  1 1 2   0   0  1.874492e+03  3.962389e+02 -1.260843e+03  2.293567e+03 0.0 0.0 9.0
21  1 1 2 103 102 -1.874492e+03 -3.962389e+02  2.035699e+03  2.795495e+03 0.0 0.0 9.0
#pdf 21 21 4.510706e-01 3.318620e-01 5000.0 5.441490e-03 2.438353e-02
</event>
<event>
4 6 1.0 5000.0 7.905138e-03 7.739137e-02
21 -1 0 0 101 102  0.000000e+00  0.000000e+00  2.100105e+03  2.100105e+03 0.0 0.0 9.0
21 -1 0 0 103 101  0.000000e+00  0.000000e+00 -2.935588e+03  2.935588e+03 0.0 0.0 9.0
22  1 1 2   0   0  2.466509e+03  6.230304e+01 -7.000311e+02  2.564682e+03 0.0 0.0 9.0
21  1 1 2 103 102 -2.466509e+03 -6.230304e+01 -1.354517e+02  2.471011e+03 0.0 0.0 9.0
#pdf 21 21 3.230931e-01 4.516289e-01 5000.0 2.714536e-02 5.402162e-03
</event>
<event>
4 6 1.0 5000.0 7.905138e-03 7.739137e-02
21 -1 0 0 101 102  0.000000e+00  0.000000e+00  2.846665e+03  2.846665e+03 0.0 0.0 9.0
21 -1 0 0 103 101  0.000000e+00  0.000000e+00 -2.203839e+03  2.203839e+03 0.0 0.0 9.0
22  1 1 2   0   0  5.651452e+02  1.690513e+02 -2.132808e+03  2.212879e+03 0.0 0.0 9.0
21  1 1 2 103 102 -5.651452e+02 -1.690513e+02  2.775634e+03  2.837624e+03 0.0 0.0 9.0
#pdf 21 21 4.379484e-01 3.390521e-01 5000.0 6.459736e-03 2.232067e-02
</event>
<event>
4 6 1.0 5000.0 7.905138e-03 7.739137e-02
21 -1 0 0 101 102  0.000000e+00  0.000000e+00  3.576126e+03  3.576126e+03 0.0 0.0 9.0
21 -1 0 0 103 101  0.000000e+00  0.000000e+00 -1.709564e+03  1.709564e+03 0.0 0.0 9.0
21  1 1 2 103 102  2.927336e+01 -1.715408e+03  2.836381e+03  3.314896e+03 0.0 0.0 9.0
22  1 1 2   0   0 -2.927336e+01  1.715408e+03 -9.698181e+02  1.970794e+03 0.0 0.0 9.0
#pdf 21 21 5.501733e-01 2.630098e-01 5000.0 1.378085e-03 5.673686e-02
</event>
<event>
4 6 1.0 5000.0 7.905138e-03 7.739137e-02
21 -1 0 0 103 101  0.000000e+00  0.000000e+00  3.012100e+03  3.012100e+03 0.0 0.0 9.0
21 -1 0 0 101 102  0.000000e+00  0.000000e+00 -2.026071e+03  2.026071e+03 0.0 0.0 9.0
21  1 1 2 103 102 -1.541549e+03  1.532028e+03  1.690587e+03  2.753464e+03 0.0 0.0 9.0
22  1 1 2   0   0  1.541549e+03 -1.532028e+03 -7.045581e+02  2.284706e+03 0.0 0.0 9.0
#pdf 21 21 4.634000e-01 3.117032e-01 5000.0 4.622189e-03 3.123083e-02
</event>
<event>
4 6 1.0 5000.0 7.905138e-03 7.739137e-02
21 -1 0 0 103 101  0.000000e+00  0.000000e+00  3.030094e+03  3.030094e+03 0.0 0.0 9.0
21 -1 0 0 101 102  0.000000e+00  0.000000e+00 -1.858201e+03  1.858201e+03 0.0 0.0 9.0
21  1 1 2 103 102 -1.100411e+03 -1.028307e+03 -1.302763e+03  1.991359e+03 0.0 0.0 9.0
22  1 1 2   0   0  1.100411e+03  1.028307e+03  2.474656e+03  2.896936e+03 0.0 0.0 9.0
#pdf 21 21 4.661683e-01 2.858771e-01 5000.0 4.456020e-03 4.282519e-02
</event>
<event>
4 6 1.0 5000.0 7.905138e-03 7.739137e-02
21 -1 0 0 101 102  0.000000e+00  0.000000e+00  2.806606e+03  2.806606e+03 0.0 0.0 9.0
21 -1 0 0 103 101  0.000000e+00  0.000000e+00 -2.173727e+03  2.173727e+03 0.0 0.0 9.0
22  1 1 2   0   0 -9.647014e+02  6.004641e+02  2.527441e+03  2.771131e+03 0.0 0.0 9.0
21  1 1 2 103 102  9.647014e+02 -6.004641e+02 -1.894563e+03  2.209202e+03 0.0 0.0 9.0
#pdf 21 21 4.317855e-01 3.344196e-01 5000.0 6.989650e-03 2.362964e-02
</event>
<event>
4 6 1.0 5000.0 7.905138e-03 7.739137e-02
21 -1 0 0 101 102  0.000000e+00  0.000000e+00  2.576415e+03  2.576415e+03 0.0 0.0 9.0
21 -1 0 0 103 101  0.000000e+00  0.000000e+00 -2.492150e+03  2.492150e+03 0.0 0.0 9.0
21  1 1 2 103 102 -1.694806e+03  1.219342e+03  1.478175e+03  2.558156e+03 0.0 0.0 9.0
22  1 1 2   0   0  1.694806e+03 -1.219342e+03 -1.393910e+03  2.510408e+03 0.0 0.0 9.0
#pdf 21 21 3.963715e-01 3.834076e-01 5000.0 1.096876e-02 1.291295e-02
</event>
<event>
4 6 1.0 5000.0 7.905138e-03 7.739137e-02
21 -1 0 0 103 101  0.000000e+00  0.000000e+00  2.516738e+03  2.516738e+03 0.0 0.0 9.0
21 -1 0 0 101 102  0.000000e+00  0.000000e+00 -2.545622e+03  2.545622e+03 0.0 0.0 9.0
21  1 1 2 103 102  4.435175e+02 -8.482460e+02 -2.357648e+03  2.544549e+03 0.0 0.0 9.0
22  1 1 2   0   0 -4.435175e+02  8.482460e+02  2.328764e+03  2.517811e+03 0.0 0.0 9.0
#pdf 21 21 3.871905e-01 3.916342e-01 5000.0 1.231203e-02 1.164159e-02
</event>
<event>
4 6 1.0 5000.0 7.905138e-03 7.739137e-02
21 -1 0 0 103 101  0.000000e+00  0.000000e+00  3.002500e+03  3.002500e+03 0.0 0.0 9.0
21 -1 0 0 101 102  0.000000e+00  0.000000e+00 -1.561026e+03  1.561026e+03 0.0 0.0 9.0
22  1 1 2   0   0 -1.114127e+03  2.409431e+02 -1.219135e+03  1.669019e+03 0.0 0.0 9.0
21  1 1 2 103 102  1.114127e+03 -2.409431e+02  2.660609e+03  2.894507e+03 0.0 0.0 9.0
#pdf 21 21 4.619230e-01 2.401579e-01 5000.0 4.713405e-03 7.546766e-02
</event>
<event>
4 6 1.0 5000.0 7.905138e-03 7.739137e-02
21 -1 0 0 103 101  0.000000e+00  0.000000e+00  2.102939e+03  2.102939e+03 0.0 0.0 9.0
21 -1 0 0 101 102  0.000000e+00  0.000000e+00 -2.993721e+03  2.993721e+03 0.0 0.0 9.0
21  1 1 2 103 102 -1.465270e+03  4.945196e+02 -2.452145e+03  2.899066e+03 0.0 0.0 9.0
22  1 1 2   0   0  1.465270e+03 -4.945196e+02  1.561363e+03  2.197594e+03 0.0 0.0 9.0
#pdf 21 21 3.235290e-01 4.605725e-01 5000.0 2.700101e-02 4.798784e-03
</event>
<event>
4 6 1.0 5000.0 7.905138e-03 7.739137e-02
21 -1 0 0 103 101  0.000000e+00  0.000000e+00  2.913229e+03  2.913229e+03 0.0 0.0 9.0
21 -1 0 0 101 102  0.000000e+00  0.000000e+00 -1.743484e+03  1.743484e+03 0.0 0.0 9.0
21  1 1 2 103 102 -1.645595e+03  4.169947e+02  2.116306e+03  2.713046e+03 0.0 0.0 9.0
22  1 1 2   0   0  1.645595e+03 -4.169947e+02 -9.465609e+02  1.943668e+03 0.0 0.0 9.0
#pdf 21 21 4.481891e-01 2.682283e-01 5000.0 5.646629e-03 5.319310e-02
</event>
<event>
4 6 1.0 5000.0 7.905138e-03 7.739137e-02
21 -1 0 0 103 101  0.000000e+00  0.000000e+00  2.444796e+03  2.444796e+03 0.0 0.0 9.0
21 -1 0 0 101 102  0.000000e+00  0.000000e+00 -1.916391e+03  1.916391e+03 0.0 0.0 9.0
21  1 1 2 103 102  1.374075e+03 -1.443155e+03 -5.872954e+02  2.077425e+03 0.0 0.0 9.0
22  1 1 2   0   0 -1.374075e+03  1.443155e+03  1.115701e+03  2.283762e+03 0.0 0.0 9.0
#pdf 21 21 3.761224e-01 2.948293e-01 5000.0 1.413843e-02 3.841351e-02
</event>
<event>
4 6 1.0 5000.0 7.905138e-03 7.739137e-02
21 -1 0 0 103 101  0.000000e+00  0.000000e+00  3.190524e+03  3.190524e+03 0.0 0.0 9.0
21 -1 0 0 101 102  0.000000e+00  0.000000e+00 -1.901539e+03  1.901539e+03 0.0 0.0 9.0
21  1 1 2 103 102  5.080297e+02  2.159554e+03  1.750629e+03  2.826035e+03 0.0 0.0 9.0
22  1 1 2   0   0 -5.080297e+02 -2.159554e+03 -4.616440e+02  2.266028e+03 0.0 0.0 9.0
#pdf 21 21 4.908499e-01 2.925445e-01 5000.0 3.195297e-03 3.950104e-02
</event>
<event>
4 6 1.0 5000.0 7.905138e-03 7.739137e-02
21 -1 0 0 101 102  0.000000e+00  0.000000e+00  2.227085e+03  2.227085e+03 0.0 0.0 9.0
21 -1 0 0 103 101  0.000000e+00  0.000000e+00 -2.637502e+03  2.637502e+03 0.0 0.0 9.0
21  1 1 2 103 102 -3.398196e+02  1.136352e+03  1.915922e+03  2.253338e+03 0.0 0.0 9.0
22  1 1 2   0   0  3.398196e+02 -1.136352e+03 -2.326339e+03  2.611249e+03 0.0 0.0 9.0
#pdf 21 21 3.426285e-01 4.057695e-01 5000.0 2.136476e-02 9.744091e-03
</event>
<event>
4 6 1.0 5000.0 7.905138e-03 7.739137e-02
21 -1 0 0 101 102  0.000000e+00  0.000000e+00  2.547577e+03  2.547577e+03 0.0 0.0 9.0
21 -1 0 0 103 101  0.000000e+00  0.000000e+00 -2.428229e+03  2.428229e+03 0.0 0.0 9.0
22  1 1 2   0   0  7.139896e+02 -1.843830e+03  1.568952e+03  2.524104e+03 0.0 0.0 9.0
21  1 1 2 103 102 -7.139896e+02  1.843830e+03 -1.449604e+03  2.451702e+03 0.0 0.0 9.0
#pdf 21 21 3.919349e-01 3.735737e-01 5000.0 1.159764e-02 1.458540e-02
</event>
<event>
4 6 1.0 5000.0 7.905138e-03 7.739137e-02
21 -1 0 0 101 102  0.000000e+00  0.000000e+00  2.816356e+03  2.816356e+03 0.0 0.0 9.0
21 -1 0 0 103 101  0.000000e+00  0.000000e+00 -2.128275e+03  2.128275e+03 0.0 0.0 9.0
22  1 1 2   0   0 -1.466089e+03  8.089847e+02  2.147676e+03  2.723304e+03 0.0 0.0 9.0
21  1 1 2 103 102  1.466089e+03 -8.089847e+02 -1.459596e+03  2.221327e+03 0.0 0.0 9.0
#pdf 21 21 4.332855e-01 3.274270e-01 5000.0 6.857099e-03 2.574418e-02
</event>
<event>
4 6 1.0 5000.0 7.905138e-03 7.739137e-02
21 -1 0 0 103 101  0.000000e+00  0.000000e+00  3.044094e+03  3.044094e+03 0.0 0.0 9.0
21 -1 0 0 101 102  0.000000e+00  0.000000e+00 -1.580060e+03  1.580060e+03 0.0 0.0 9.0
21  1 1 2 103 102 -1.804451e+03 -1.114284e+03  1.321045e+03  2.498567e+03 0.0 0.0 9.0
22  1 1 2   0   0  1.804451e+03  1.114284e+03  1.429884e+02  2.125587e+03 0.0 0.0 9.0
#pdf 21 21 4.683221e-01 2.430861e-01 5000.0 4.330438e-03 7.272614e-02
</event>
<event>
4 6 1.0 5000.0 7.905138e-03 7.739137e-02
21 -1 0 0 103 101  0.000000e+00  0.000000e+00  3.347671e+03  3.347671e+03 0.0 0.0 9.0
21 -1 0 0 101 102  0.000000e+00  0.000000e+00 -1.841372e+03  1.841372e+03 0.0 0.0 9.0
22  1 1 2   0   0  2.098004e+03  4.020484e+02  2.075410e+03  2.978353e+03 0.0 0.0 9.0
21  1 1 2 103 102 -2.098004e+03 -4.020484e+02 -5.691106e+02  2.210690e+03 0.0 0.0 9.0
#pdf 21 21 5.150263e-01 2.832881e-01 5000.0 2.286948e-03 4.419854e-02
</event>
<event>
4 6 1.0 5000.0 7.905138e-03 7.739137e-02
21 -1 0 0 101 102  0.000000e+00  0.000000e+00  2.219395e+03  2.219395e+03 0.0 0.0 9.0
21 -1 0 0 103 101  0.000000e+00  0.000000e+00 -2.442770e+03  2.442770e+03 0.0 0.0 9.0
21  1 1 2 103 102  5.052616e+02 -5.282851e+01  2.163235e+03  2.222086e+03 0.0 0.0 9.0
22  1 1 2   0   0 -5.052616e+02  5.282851e+01 -2.386609e+03  2.440079e+03 0.0 0.0 9.0
#pdf 21 21 3.414454e-01 3.758107e-01 5000.0 2.167604e-02 1.419264e-02
</event>
<event>
4 6 1.0 5000.0 7.905138e-03 7.739137e-02
21 -1 0 0 101 102  0.000000e+00  0.000000e+00  2.559678e+03  2.559678e+03 0.0 0.0 9.0
21 -1 0 0 103 101  0.000000e+00  0.000000e+00 -1.756425e+03  1.756425e+03 0.0 0.0 9.0
21  1 1 2 103 102 -1.870447e+03 -5.423789e+02 -4.518136e+02  1.999221e+03 0.0 0.0 9.0
22  1 1 2   0   0  1.870447e+03  5.423789e+02  1.255067e+03  2.316882e+03 0.0 0.0 9.0
#pdf 21 21 3.937967e-01 2.702192e-01 5000.0 1.132937e-02 5.190538e-02
</event>
<event>
4 6 1.0 5000.0 7.905138e-03 7.739137e-02
21 -1 0 0 101 102  0.000000e+00  0.000000e+00  2.278242e+03  2.278242e+03 0.0 0.0 9.0
21 -1 0 0 103 101  0.000000e+00  0.000000e+00 -3.079946e+03  3.079946e+03 0.0 0.0 9.0
21  1 1 2 103 102 -4.484649e+02  1.371579e+03 -2.647518e+03  3.015245e+03 0.0 0.0 9.0
22  1 1 2   0   0  4.484649e+02 -1.371579e+03  1.845814e+03  2.342942e+03 0.0 0.0 9.0
#pdf 21 21 3.504987e-01 4.738378e-01 5000.0 1.940007e-02 4.023000e-03
</event>
<event>
4 6 1.0 5000.0 7.905138e-03 7.739137e-02
21 -1 0 0 103 101  0.000000e+00  0.000000e+00  2.597899e+03  2.597899e+03 0.0 0.0 9.0
21 -1 0 0 101 102  0.000000e+00  0.000000e+00 -2.404055e+03  2.404055e+03 0.0 0.0 9.0
21  1 1 2 103 102 -1.570425e+02 -9.533850e+02  2.403408e+03  2.590362e+03 0.0 0.0 9.0
22  1 1 2   0   0  1.570425e+02  9.533850e+02 -2.209563e+03  2.411592e+03 0.0 0.0 9.0
#pdf 21 21 3.996768e-01 3.698545e-01 5000.0 1.052248e-02 1.526329e-02
</event>
<event>
4 6 1.0 5000.0 7.905138e-03 7.739137e-02
21 -1 0 0 101 102  0.000000e+00  0.000000e+00  2.689464e+03  2.689464e+03 0.0 0.0 9.0
21 -1 0 0 103 101  0.000000e+00  0.000000e+00 -2.461652e+03  2.461652e+03 0.0 0.0 9.0
22  1 1 2   0   0 -7.007600e+02 -8.957727e+02 -2.196395e+03  2.473383e+03 0.0 0.0 9.0
21  1 1 2 103 102  7.007600e+02  8.957727e+02  2.424207e+03  2.677732e+03 0.0 0.0 9.0
#pdf 21 21 4.137636e-01 3.787157e-01 5000.0 8.802005e-03 1.369278e-02
</event>
<event>
4 6 1.0 5000.0 7.905138e-03 7.739137e-02
21 -1 0 0 101 102  0.000000e+00  0.000000e+00  2.866542e+03  2.866542e+03 0.0 0.0 9.0
21 -1 0 0 103 101  0.000000e+00  0.000000e+00 -1.680271e+03  1.680271e+03 0.0 0.0 9.0
21  1 1 2 103 102  6.525278e+02  1.898214e+03  1.512420e+03  2.513249e+03 0.0 0.0 9.0
22  1 1 2   0   0 -6.525278e+02 -1.898214e+03 -3.261484e+02  2.033564e+03 0.0 0.0 9.0
#pdf 21 21 4.410065e-01 2.585032e-01 5000.0 6.208529e-03 6.002337e-02
</event>
<event>
4 6 1.0 5000.0 7.905138e-03 7.739137e-02
21 -1 0 0 103 101  0.000000e+00  0.000000e+00  3.127475e+03  3.127475e+03 0.0 0.0 9.0
21 -1 0 0 101 102  0.000000e+00  0.000000e+00 -2.083070e+03  2.083070e+03 0.0 0.0 9.0
22  1 1 2   0   0  2.194133e+03 -9.058182e+02 -4.353243e+02  2.413345e+03 0.0 0.0 9.0
21  1 1 2 103 102 -2.194133e+03  9.058182e+02  1.479730e+03  2.797200e+03 0.0 0.0 9.0
#pdf 21 21 4.811500e-01 3.204723e-01 5000.0 3.645051e-03 2.803026e-02
</event>
<event>
4 6 1.0 5000.0 7.905138e-03 7.739137e-02
21 -1 0 0 103 101  0.000000e+00  0.000000e+00  1.642207e+03  1.642207e+03 0.0 0.0 9.0
21 -1 0 0 101 102  0.000000e+00  0.000000e+00 -3.239248e+03  3.239248e+03 0.0 0.0 9.0
22  1 1 2   0   0 -1.924849e+03  7.635124e+02  2.762673e+02  2.089095e+03 0.0 0.0 9.0
21  1 1 2 103 102  1.924849e+03 -7.635124e+02 -1.873308e+03  2.792361e+03 0.0 0.0 9.0
#pdf 21 21 2.526472e-01 4.983459e-01 5000.0 6.458604e-02 2.883638e-03
</event>
<event>
4 6 1.0 5000.0 7.905138e-03 7.739137e-02
21 -1 0 0 101 102  0.000000e+00  0.000000e+00  2.689011e+03  2.689011e+03 0.0 0.0 9.0
21 -1 0 0 103 101  0.000000e+00  0.000000e+00 -1.782001e+03  1.782001e+03 0.0 0.0 9.0
22  1 1 2   0   0 -1.569860e+03  1.155238e+03 -5.640383e+02  2.029082e+03 0.0 0.0 9.0
21  1 1 2 103 102  1.569860e+03 -1.155238e+03  1.471049e+03  2.441930e+03 0.0 0.0 9.0
#pdf 21 21 4.136940e-01 2.741539e-01 5000.0 8.809799e-03 4.945509e-02
</event>
<event>
4 6 1.0 5000.0 7.905138e-03 7.739137e-02
21 -1 0 0 101 102  0.000000e+00  0.000000e+00  2.759009e+03  2.759009e+03 0.0 0.0 9.0
21 -1 0 0 103 101  0.000000e+00  0.000000e+00 -2.241645e+03  2.241645e+03 0.0 0.0 9.0
22  1 1 2   0   0  1.192262e+03  1.963513e+03 -6.992700e+02  2.401218e+03 0.0 0.0 9.0
21  1 1 2 103 102 -1.192262e+03 -1.963513e+03  1.216634e+03  2.599436e+03 0.0 0.0 9.0
#pdf 21 21 4.244629e-01 3.448685e-01 5000.0 7.679041e-03 2.078773e-02
</event>
<event>
4 6 1.0 5000.0 7.905138e-03 7.739137e-02
21 -1 0 0 101 102  0.000000e+00  0.000000e+00  1.506017e+03  1.506017e+03 0.0 0.0 9.0
21 -1 0 0 103 101  0.000000e+00  0.000000e+00 -3.030656e+03  3.030656e+03 0.0 0.0 9.0
21  1 1 2 103 102 -1.472580e+03 -1.219500e+03 -1.774360e+03  2.608453e+03 0.0 0.0 9.0
22  1 1 2   0   0  1.472580e+03  1.219500e+03  2.497202e+02  1.928220e+03 0.0 0.0 9.0
#pdf 21 21 2.316949e-01 4.662548e-01 5000.0 8.384473e-02 4.450914e-03
</event>
<event>
4 6 1.0 5000.0 7.905138e-03 7.739137e-02
21 -1 0 0 101 102  0.000000e+00  0.000000e+00  2.232319e+03  2.232319e+03 0.0 0.0 9.0
21 -1 0 0 103 101  0.000000e+00  0.000000e+00 -2.842175e+03  2.842175e+03 0.0 0.0 9.0
21  1 1 2 103 102  1.523572e+03 -1.625628e+03  8.786849e+02  2.395000e+03 0.0 0.0 9.0
22  1 1 2   0   0 -1.523572e+03  1.625628e+03 -1.488540e+03  2.679494e+03 0.0 0.0 9.0
#pdf 21 21 3.434337e-01 4.372576e-01 5000.0 2.115552e-02 6.517388e-03
</event>
<event>
4 6 1.0 5000.0 7.905138e-03 7.739137e-02
21 -1 0 0 103 101  0.000000e+00  0.000000e+00  1.031829e+03  1.031829e+03 0.0 0.0 9.0
21 -1 0 0 101 102  0.000000e+00  0.000000e+00 -4.331141e+03  4.331141e+03 0.0 0.0 9.0
22  1 1 2   0   0  6.338943e+02  1.885743e+03 -2.556521e+03  3.239390e+03 0.0 0.0 9.0
21  1 1 2 103 102 -6.338943e+02 -1.885743e+03 -7.427906e+02  2.123579e+03 0.0 0.0 9.0
#pdf 21 21 1.587428e-01 6.663293e-01 5000.0 2.193576e-01 2.061000e-04
</event>
<event>
4 6 1.0 5000.0 7.905138e-03 7.739137e-02
21 -1 0 0 101 102  0.000000e+00  0.000000e+00  1.835872e+03  1.835872e+03 0.0 0.0 9.0
21 -1 0 0 103 101  0.000000e+00  0.000000e+00 -3.458309e+03  3.458309e+03 0.0 0.0 9.0
22  1 1 2   0   0  2.116548e+03 -1.356460e+03 -9.908950e+02  2.702154e+03 0.0 0.0 9.0
21  1 1 2 103 102 -2.116548e+03  1.356460e+03 -6.315418e+02  2.592027e+03 0.0 0.0 9.0
#pdf 21 21 2.824419e-01 5.320475e-01 5000.0 4.465990e-02 1.796478e-03
</event>
<event>
4 6 1.0 5000.0 7.905138e-03 7.739137e-02
21 -1 0 0 103 101  0.000000e+00  0.000000e+00  2.608807e+03  2.608807e+03 0.0 0.0 9.0
21 -1 0 0 101 102  0.000000e+00  0.000000e+00 -2.486849e+03  2.486849e+03 0.0 0.0 9.0
21  1 1 2 103 102  1.687101e+03 -1.233889e+03  1.517047e+03  2.582677e+03 0.0 0.0 9.0
22  1 1 2   0   0 -1.687101e+03  1.233889e+03 -1.395089e+03  2.512979e+03 0.0 0.0 9.0
#pdf 21 21 4.013550e-01 3.825922e-01 5000.0 1.030260e-02 1.304586e-02
</event>
<event>
4 6 1.0 5000.0 7.905138e-03 7.739137e-02
21 -1 0 0 103 101  0.000000e+00  0.000000e+00  2.424004e+03  2.424004e+03 0.0 0.0 9.0
21 -1 0 0 101 102  0.000000e+00  0.000000e+00 -2.437900e+03  2.437900e+03 0.0 0.0 9.0
21  1 1 2 103 102 -1.567494e+02  1.939949e+03 -1.463493e+03  2.435115e+03 0.0 0.0 9.0
22  1 1 2   0   0  1.567494e+02 -1.939949e+03  1.449597e+03  2.426789e+03 0.0 0.0 9.0
#pdf 21 21 3.729237e-01 3.750615e-01 5000.0 1.470070e-02 1.432345e-02
</event>
<event>
4 6 1.0 5000.0 7.905138e-03 7.739137e-02
21 -1 0 0 101 102  0.000000e+00  0.000000e+00  2.995238e+03  2.995238e+03 0.0 0.0 9.0
21 -1 0 0 103 101  0.000000e+00  0.000000e+00 -2.016659e+03  2.016659e+03 0.0 0.0 9.0
21  1 1 2 103 102  4.209562e+02  1.053185e+03  2.712438e+03  2.940021e+03 0.0 0.0 9.0
22  1 1 2   0   0 -4.209562e+02 -1.053185e+03 -1.733859e+03  2.071876e+03 0.0 0.0 9.0
#pdf 21 21 4.608058e-01 3.102552e-01 5000.0 4.783903e-03 3.179538e-02
</event>
<event>
4 6 1.0 5000.0 7.905138e-03 7.739137e-02
21 -1 0 0 101 102  0.000000e+00  0.000000e+00  2.046287e+03  2.046287e+03 0.0 0.0 9.0
21 -1 0 0 103 101  0.000000e+00  0.000000e+00 -2.995407e+03  2.995407e+03 0.0 0.0 9.0
21  1 1 2 103 102  7.098900e+01 -2.360563e+03 -1.231167e+03  2.663282e+03 0.0 0.0 9.0
22  1 1 2   0   0 -7.098900e+01  2.360563e+03  2.820468e+02  2.378413e+03 0.0 0.0 9.0
#pdf 21 21 3.148134e-01 4.608319e-01 5000.0 3.005070e-02 4.782242e-03
</event>
<event>
4 6 1.0 5000.0 7.905138e-03 7.739137e-02
21 -1 0 0 103 101  0.000000e+00  0.000000e+00  1.933723e+03  1.933723e+03 0.0 0.0 9.0
21 -1 0 0 101 102  0.000000e+00  0.000000e+00 -3.428245e+03  3.428245e+03 0.0 0.0 9.0
22  1 1 2   0   0 -6.310971e+01  2.198108e+03  6.472628e+02  2.292293e+03 0.0 0.0 9.0
21  1 1 2 103 102  6.310971e+01 -2.198108e+03 -2.141785e+03  3.069675e+03 0.0 0.0 9.0
#pdf 21 21 2.974958e-01 5.274223e-01 5000.0 3.716624e-02 1.919261e-03
</event>
<event>
4 6 1.0 5000.0 7.905138e-03 7.739137e-02
21 -1 0 0 103 101  0.000000e+00  0.000000e+00  1.698015e+03  1.698015e+03 0.0 0.0 9.0
21 -1 0 0 101 102  0.000000e+00  0.000000e+00 -3.181674e+03  3.181674e+03 0.0 0.0 9.0
21  1 1 2 103 102 -9.334762e+02 -1.949512e+03  1.553721e+02  2.167053e+03 0.0 0.0 9.0
22  1 1 2   0   0  9.334762e+02  1.949512e+03 -1.639031e+03  2.712637e+03 0.0 0.0 9.0
#pdf 21 21 2.612331e-01 4.894883e-01 5000.0 5.800649e-02 3.254996e-03
</event>
<event>
4 6 1.0 5000.0 7.905138e-03 7.739137e-02
21 -1 0 0 103 101  0.000000e+00  0.000000e+00  3.218757e+03  3.218757e+03 0.0 0.0 9.0
21 -1 0 0 101 102  0.000000e+00  0.000000e+00 -1.993670e+03  1.993670e+03 0.0 0.0 9.0
22  1 1 2   0   0 -2.026695e+01 -1.974864e+03  2.244655e+03  2.989812e+03 0.0 0.0 9.0
21  1 1 2 103 102  2.026695e+01  1.974864e+03 -1.019568e+03  2.222615e+03 0.0 0.0 9.0
#pdf 21 21 4.951934e-01 3.067184e-01 5000.0 3.011402e-03 3.320941e-02
</event>
<event>
4 6 1.0 5000.0 7.905138e-03 7.739137e-02
21 -1 0 0 101 102  0.000000e+00  0.000000e+00  2.992804e+03  2.992804e+03 0.0 0.0 9.0
21 -1 0 0 103 101  0.000000e+00  0.000000e+00 -2.127311e+03  2.127311e+03 0.0 0.0 9.0
21  1 1 2 103 102 -1.675852e+03 -2.134228e+01  2.346469e+03  2.883549e+03 0.0 0.0 9.0
22  1 1 2   0   0  1.675852e+03  2.134228e+01 -1.480976e+03  2.236566e+03 0.0 0.0 9.0
#pdf 21 21 4.604314e-01 3.272785e-01 5000.0 4.807806e-03 2.579095e-02
</event>
<event>
4 7 1.0 5000.0 7.905138e-03 7.739137e-02
 1 -1 0 0 101   0  0.000000e+00  0.000000e+00  2.679521e+03  2.679521e+03 0.0 0.0 9.0
21 -1 0 0 103 101  0.000000e+00  0.000000e+00 -2.420131e+03  2.420131e+03 0.0 0.0 9.0
22  1 1 2   0   0  5.980046e+02  2.341192e+03  9.344790e+02  2.590761e+03 0.0 0.0 9.0
 1  1 1 2 103   0 -5.980046e+02 -2.341192e+03 -6.750891e+02  2.508891e+03 0.0047 0.0 9.0
#pdf 1 21 4.122340e-01 3.723279e-01 5000.0 3.873600e-02 5.411105e-02
</event>
<event>
4 7 1.0 5000.0 7.905138e-03 7.739137e-02
 1 -1 0 0 101   0  0.000000e+00  0.000000e+00  2.726031e+03  2.726031e+03 0.0 0.0 9.0
21 -1 0 0 103 101  0.000000e+00  0.000000e+00 -2.326494e+03  2.326494e+03 0.0 0.0 9.0
 1  1 1 2 103   0 -1.698733e+03  5.238166e+02 -1.589657e+03  2.384761e+03 0.0047 0.0 9.0
22  1 1 2   0   0  1.698733e+03 -5.238166e+02  1.989194e+03  2.667765e+03 0.0 0.0 9.0
#pdf 1 21 4.193894e-01 3.579222e-01 5000.0 3.636172e-02 6.062569e-02
</event>
<event>
4 7 1.0 5000.0 7.905138e-03 7.739137e-02
21 -1 0 0 103 101  0.000000e+00  0.000000e+00  1.861626e+03  1.861626e+03 0.0 0.0 9.0
 1 -1 0 0 101   0  0.000000e+00  0.000000e+00 -3.412935e+03  3.412935e+03 0.0 0.0 9.0
22  1 1 2   0   0 -6.038323e+02 -7.441019e+02  1.663606e+03  1.919866e+03 0.0 0.0 9.0
 1  1 1 2 103   0  6.038323e+02  7.441019e+02 -3.214914e+03  3.354695e+03 0.0047 0.0 9.0
#pdf 21 1 2.864040e-01 5.250669e-01 5000.0 4.255218e-02 1.984373e-03
</event>
<event>
4 7 1.0 5000.0 7.905138e-03 7.739137e-02
21 -1 0 0 103 101  0.000000e+00  0.000000e+00  1.976862e+03  1.976862e+03 0.0 0.0 9.0
 1 -1 0 0 101   0  0.000000e+00  0.000000e+00 -3.099986e+03  3.099986e+03 0.0 0.0 9.0
 1  1 1 2 103   0  1.924430e+03 -7.987544e+02  8.091130e+02  2.235197e+03 0.0047 0.0 9.0
22  1 1 2   0   0 -1.924430e+03  7.987544e+02 -1.932237e+03  2.841651e+03 0.0 0.0 9.0
#pdf 21 1 3.041326e-01 4.769209e-01 5000.0 3.427014e-02 3.859663e-03
</event>
<event>
4 7 1.0 5000.0 7.905138e-03 7.739137e-02
21 -1 0 0 103 101  0.000000e+00  0.000000e+00  2.042731e+03  2.042731e+03 0.0 0.0 9.0
 1 -1 0 0 101   0  0.000000e+00  0.000000e+00 -3.077151e+03  3.077151e+03 0.0 0.0 9.0
 1  1 1 2 103   0 -4.737437e+02  9.748050e+02 -2.825592e+03  3.026326e+03 0.0047 0.0 9.0
22  1 1 2   0   0  4.737437e+02 -9.748050e+02  1.791172e+03  2.093556e+03 0.0 0.0 9.0
#pdf 21 1 3.142663e-01 4.734078e-01 5000.0 3.025490e-02 4.046257e-03
</event>
<event>
4 7 1.0 5000.0 7.905138e-03 7.739137e-02
21 -1 0 0 103 101  0.000000e+00  0.000000e+00  3.072086e+03  3.072086e+03 0.0 0.0 9.0
 1 -1 0 0 101   0  0.000000e+00  0.000000e+00 -2.007432e+03  2.007432e+03 0.0 0.0 9.0
 1  1 1 2 103   0 -1.478622e+03 -1.104974e+03 -1.166650e+03  2.183658e+03 0.0047 0.0 9.0
22  1 1 2   0   0  1.478622e+03  1.104974e+03  2.231304e+03  2.895860e+03 0.0 0.0 9.0
#pdf 21 1 4.726286e-01 3.088357e-01 5000.0 4.088699e-03 3.235725e-02
</event>
<event>
4 7 1.0 5000.0 7.905138e-03 7.739137e-02
 1 -1 0 0 101   0  0.000000e+00  0.000000e+00  3.319283e+03  3.319283e+03 0.0 0.0 9.0
21 -1 0 0 103 101  0.000000e+00  0.000000e+00 -1.421143e+03  1.421143e+03 0.0 0.0 9.0
 1  1 1 2 103   0 -2.067390e+03  3.212239e+02  3.128384e+02  2.115456e+03 0.0047 0.0 9.0
22  1 1 2   0   0  2.067390e+03 -3.212239e+02  1.585302e+03  2.624970e+03 0.0 0.0 9.0
#pdf 1 21 5.106589e-01 2.186373e-01 5000.0 1.467373e-02 1.552652e-01
</event>
<event>
4 7 1.0 5000.0 7.905138e-03 7.739137e-02
 1 -1 0 0 101   0  0.000000e+00  0.000000e+00  3.594779e+03  3.594779e+03 0.0 0.0 9.0
21 -1 0 0 103 101  0.000000e+00  0.000000e+00 -1.719850e+03  1.719850e+03 0.0 0.0 9.0
 1  1 1 2 103   0 -2.035882e+03  8.213026e+02 -3.102918e+02  2.217123e+03 0.0047 0.0 9.0
22  1 1 2   0   0  2.035882e+03 -8.213026e+02  2.185221e+03  3.097506e+03 0.0 0.0 9.0
#pdf 1 21 5.530430e-01 2.645923e-01 5000.0 8.922829e-03 1.171474e-01
</event>
<event>
4 7 1.0 5000.0 7.905138e-03 7.739137e-02
21 -1 0 0 103 101  0.000000e+00  0.000000e+00  1.493939e+03  1.493939e+03 0.0 0.0 9.0
 1 -1 0 0 101   0  0.000000e+00  0.000000e+00 -4.201611e+03  4.201611e+03 0.0 0.0 9.0
22  1 1 2   0   0  2.585874e+02  1.492305e+03 -3.622355e+03  3.926232e+03 0.0 0.0 9.0
 1  1 1 2 103   0 -2.585874e+02 -1.492305e+03  9.146833e+02  1.769318e+03 0.0047 0.0 9.0
#pdf 21 1 2.298368e-01 6.464016e-01 5000.0 8.581579e-02 2.950554e-04
</event>
<event>
4 7 1.0 5000.0 7.905138e-03 7.739137e-02
21 -1 0 0 103 101  0.000000e+00  0.000000e+00  1.609778e+03  1.609778e+03 0.0 0.0 9.0
 1 -1 0 0 101   0  0.000000e+00  0.000000e+00 -3.794744e+03  3.794744e+03 0.0 0.0 9.0
22  1 1 2   0   0  3.483971e+02  1.031388e+03  1.333526e+03  1.721463e+03 0.0 0.0 9.0
 1  1 1 2 103   0 -3.483971e+02 -1.031388e+03 -3.518492e+03  3.683059e+03 0.0047 0.0 9.0
#pdf 21 1 2.476582e-01 5.838068e-01 5000.0 6.867486e-02 8.285814e-04
</event>
<event>
4 7 1.0 5000.0 7.905138e-03 7.739137e-02
 1 -1 0 0 101   0  0.000000e+00  0.000000e+00  2.409172e+03  2.409172e+03 0.0 0.0 9.0
21 -1 0 0 103 101  0.000000e+00  0.000000e+00 -2.582053e+03  2.582053e+03 0.0 0.0 9.0
22  1 1 2   0   0  1.321537e+03 -1.864755e+03  9.125769e+02  2.461010e+03 0.0 0.0 9.0
 1  1 1 2 103   0 -1.321537e+03  1.864755e+03 -1.085457e+03  2.530215e+03 0.0047 0.0 9.0
#pdf 1 21 3.706419e-01 3.972388e-01 5000.0 5.484177e-02 4.408151e-02
</event>
<event>
4 7 1.0 5000.0 7.905138e-03 7.739137e-02
 1 -1 0 0 101   0  0.000000e+00  0.000000e+00  3.307794e+03  3.307794e+03 0.0 0.0 9.0
21 -1 0 0 103 101  0.000000e+00  0.000000e+00 -1.896705e+03  1.896705e+03 0.0 0.0 9.0
22  1 1 2   0   0 -2.147645e+03  9.117396e+02  1.652190e+03  2.858912e+03 0.0 0.0 9.0
 1  1 1 2 103   0  2.147645e+03 -9.117396e+02 -2.411016e+02  2.345587e+03 0.0047 0.0 9.0
#pdf 1 21 5.088914e-01 2.918008e-01 5000.0 1.496345e-02 9.794129e-02
</event>
<event>
4 7 1.0 5000.0 7.905138e-03 7.739137e-02
 1 -1 0 0 101   0  0.000000e+00  0.000000e+00  1.962307e+03  1.962307e+03 0.0 0.0 9.0
21 -1 0 0 103 101  0.000000e+00  0.000000e+00 -2.807701e+03  2.807701e+03 0.0 0.0 9.0
22  1 1 2   0   0  6.817586e+02 -1.969200e+02  1.850702e+03  1.982087e+03 0.0 0.0 9.0
 1  1 1 2 103   0 -6.817586e+02  1.969200e+02 -2.696096e+03  2.787921e+03 0.0047 0.0 9.0
#pdf 1 21 3.018934e-01 4.319540e-01 5000.0 9.140516e-02 3.246182e-02
</event>
<event>
4 7 1.0 5000.0 7.905138e-03 7.739137e-02
21 -1 0 0 103 101  0.000000e+00  0.000000e+00  1.781444e+03  1.781444e+03 0.0 0.0 9.0
 1 -1 0 0 101   0  0.000000e+00  0.000000e+00 -3.544405e+03  3.544405e+03 0.0 0.0 9.0
 1  1 1 2 103   0 -1.161944e+02 -2.477673e+03 -1.307748e+03  2.804028e+03 0.0047 0.0 9.0
22  1 1 2   0   0  1.161944e+02  2.477673e+03 -4.552129e+02  2.521822e+03 0.0 0.0 9.0
#pdf 21 1 2.740684e-01 5.452931e-01 5000.0 4.950709e-02 1.481726e-03
</event>
<event>
4 7 1.0 5000.0 7.905138e-03 7.739137e-02
 1 -1 0 0 101   0  0.000000e+00  0.000000e+00  3.557308e+03  3.557308e+03 0.0 0.0 9.0
21 -1 0 0 103 101  0.000000e+00  0.000000e+00 -2.044264e+03  2.044264e+03 0.0 0.0 9.0
 1  1 1 2 103   0  1.733918e+03 -6.698938e+02  2.785621e+03  3.348867e+03 0.0047 0.0 9.0
22  1 1 2   0   0 -1.733918e+03  6.698938e+02 -1.272577e+03  2.252705e+03 0.0 0.0 9.0
#pdf 1 21 5.472782e-01 3.145021e-01 5000.0 9.582091e-03 8.368190e-02
</event>
<event>
4 7 1.0 5000.0 7.905138e-03 7.739137e-02
21 -1 0 0 103 101  0.000000e+00  0.000000e+00  2.373897e+03  2.373897e+03 0.0 0.0 9.0
 1 -1 0 0 101   0  0.000000e+00  0.000000e+00 -2.651239e+03  2.651239e+03 0.0 0.0 9.0
22  1 1 2   0   0  5.397468e+02 -1.152823e+03  2.026443e+03  2.393073e+03 0.0 0.0 9.0
 1  1 1 2 103   0 -5.397468e+02  1.152823e+03 -2.303785e+03  2.632063e+03 0.0047 0.0 9.0
#pdf 21 1 3.652149e-01 4.078829e-01 5000.0 1.617746e-02 9.486187e-03
</event>
<event>
4 7 1.0 5000.0 7.905138e-03 7.739137e-02
 1 -1 0 0 101   0  0.000000e+00  0.000000e+00  3.426426e+03  3.426426e+03 0.0 0.0 9.0
21 -1 0 0 103 101  0.000000e+00  0.000000e+00 -1.788032e+03  1.788032e+03 0.0 0.0 9.0
 1  1 1 2 103   0  1.297586e+03  8.157535e+02  2.866424e+03  3.250472e+03 0.0047 0.0 9.0
22  1 1 2   0   0 -1.297586e+03 -8.157535e+02 -1.228030e+03  1.963986e+03 0.0 0.0 9.0
#pdf 1 21 5.271425e-01 2.750819e-01 5000.0 1.217656e-02 1.094532e-01
</event>
<event>
4 7 1.0 5000.0 7.905138e-03 7.739137e-02
21 -1 0 0 103 101  0.000000e+00  0.000000e+00  4.361193e+03  4.361193e+03 0.0 0.0 9.0
 1 -1 0 0 101   0  0.000000e+00  0.000000e+00 -1.410579e+03  1.410579e+03 0.0 0.0 9.0
22  1 1 2   0   0  1.055139e+03  1.619498e+03  3.283732e+03  3.810379e+03 0.0 0.0 9.0
 1  1 1 2 103   0 -1.055139e+03 -1.619498e+03 -3.331183e+02  1.961392e+03 0.0047 0.0 9.0
#pdf 21 1 6.709527e-01 2.170121e-01 5000.0 1.894823e-04 1.010713e-01
</event>
<event>
4 7 1.0 5000.0 7.905138e-03 7.739137e-02
21 -1 0 0 103 101  0.000000e+00  0.000000e+00  2.718148e+03  2.718148e+03 0.0 0.0 9.0
 1 -1 0 0 101   0  0.000000e+00  0.000000e+00 -2.278347e+03  2.278347e+03 0.0 0.0 9.0
22  1 1 2   0   0 -3.357627e+02 -2.463735e+03  3.210683e+02  2.507153e+03 0.0 0.0 9.0
 1  1 1 2 103   0  3.357627e+02  2.463735e+03  1.187320e+02  2.489343e+03 0.0047 0.0 9.0
#pdf 21 1 4.181766e-01 3.505150e-01 5000.0 8.321445e-03 1.939617e-02
</event>
<event>
4 7 1.0 5000.0 7.905138e-03 7.739137e-02
21 -1 0 0 103 101  0.000000e+00  0.000000e+00  2.167008e+03  2.167008e+03 0.0 0.0 9.0
 1 -1 0 0 101   0  0.000000e+00  0.000000e+00 -2.873186e+03  2.873186e+03 0.0 0.0 9.0
 1  1 1 2 103   0 -8.030117e+02  8.624244e+02 -2.574458e+03  2.831332e+03 0.0047 0.0 9.0
22  1 1 2   0   0  8.030117e+02 -8.624244e+02  1.868280e+03  2.208862e+03 0.0 0.0 9.0
#pdf 21 1 3.333858e-01 4.420286e-01 5000.0 2.393179e-02 6.125789e-03
</event>
<event>
4 7 1.0 5000.0 7.905138e-03 7.739137e-02
 1 -1 0 0 101   0  0.000000e+00  0.000000e+00  1.373084e+03  1.373084e+03 0.0 0.0 9.0
21 -1 0 0 103 101  0.000000e+00  0.000000e+00 -3.772324e+03  3.772324e+03 0.0 0.0 9.0
22  1 1 2   0   0 -2.203158e+03  3.206989e+02 -1.733396e+03  2.821597e+03 0.0 0.0 9.0
 1  1 1 2 103   0  2.203158e+03 -3.206989e+02 -6.658440e+02  2.323811e+03 0.0047 0.0 9.0
#pdf 1 21 2.112438e-01 5.803576e-01 5000.0 1.621095e-01 6.276996e-03
</event>
<event>
4 7 1.0 5000.0 7.905138e-03 7.739137e-02
 1 -1 0 0 101   0  0.000000e+00  0.000000e+00  3.388071e+03  3.388071e+03 0.0 0.0 9.0
21 -1 0 0 103 101  0.000000e+00  0.000000e+00 -1.882941e+03  1.882941e+03 0.0 0.0 9.0
 1  1 1 2 103   0 -1.471732e+03  1.029539e+03 -1.100422e+03  2.106389e+03 0.0047 0.0 9.0
22  1 1 2   0   0  1.471732e+03 -1.029539e+03  2.605551e+03  3.164623e+03 0.0 0.0 9.0
#pdf 1 21 5.212416e-01 2.896833e-01 5000.0 1.302760e-02 9.935010e-02
</event>
<event>
4 7 1.0 5000.0 7.905138e-03 7.739137e-02
 1 -1 0 0 101   0  0.000000e+00  0.000000e+00  2.561406e+03  2.561406e+03 0.0 0.0 9.0
21 -1 0 0 103 101  0.000000e+00  0.000000e+00 -2.412479e+03  2.412479e+03 0.0 0.0 9.0
 1  1 1 2 103   0 -9.498495e+02  5.090235e+02  2.315561e+03  2.554045e+03 0.0047 0.0 9.0
22  1 1 2   0   0  9.498495e+02 -5.090235e+02 -2.166635e+03  2.419840e+03 0.0 0.0 9.0
#pdf 1 21 3.940624e-01 3.711506e-01 5000.0 4.527959e-02 5.461983e-02
</event>
<event>
4 7 1.0 5000.0 7.905138e-03 7.739137e-02
 1 -1 0 0 101   0  0.000000e+00  0.000000e+00  2.050544e+03  2.050544e+03 0.0 0.0 9.0
21 -1 0 0 103 101  0.000000e+00  0.000000e+00 -3.237051e+03  3.237051e+03 0.0 0.0 9.0
 1  1 1 2 103   0 -8.508051e+02  4.758541e+02 -3.040491e+03  3.192944e+03 0.0047 0.0 9.0
22  1 1 2   0   0  8.508051e+02 -4.758541e+02  1.853984e+03  2.094651e+03 0.0 0.0 9.0
#pdf 1 21 3.154683e-01 4.980078e-01 5000.0 8.310939e-02 1.684694e-02
</event>
<event>
4 7 1.0 5000.0 7.905138e-03 7.739137e-02
21 -1 0 0 103 101  0.000000e+00  0.000000e+00  2.446640e+03  2.446640e+03 0.0 0.0 9.0
 1 -1 0 0 101   0  0.000000e+00  0.000000e+00 -2.571170e+03  2.571170e+03 0.0 0.0 9.0
 1  1 1 2 103   0 -1.763815e+03  1.612480e+03  6.992800e+02  2.490005e+03 0.0047 0.0 9.0
22  1 1 2   0   0  1.763815e+03 -1.612480e+03 -8.238107e+02  2.527805e+03 0.0 0.0 9.0
#pdf 21 1 3.764061e-01 3.955647e-01 5000.0 1.408922e-02 1.108049e-02
</event>
<event>
4 7 1.0 5000.0 7.905138e-03 7.739137e-02
21 -1 0 0 103 101  0.000000e+00  0.000000e+00  1.671951e+03  1.671951e+03 0.0 0.0 9.0
 1 -1 0 0 101   0  0.000000e+00  0.000000e+00 -3.746169e+03  3.746169e+03 0.0 0.0 9.0
 1  1 1 2 103   0  1.460947e+03  7.701385e+01 -3.235099e+03  3.550516e+03 0.0047 0.0 9.0
22  1 1 2   0   0 -1.460947e+03 -7.701385e+01  1.160881e+03  1.867604e+03 0.0 0.0 9.0
#pdf 21 1 2.572232e-01 5.763336e-01 5000.0 6.099473e-02 9.297776e-04
</event>
<event>
4 7 1.0 5000.0 7.905138e-03 7.739137e-02
 1 -1 0 0 101   0  0.000000e+00  0.000000e+00  1.313636e+03  1.313636e+03 0.0 0.0 9.0
21 -1 0 0 103 101  0.000000e+00  0.000000e+00 -3.325252e+03  3.325252e+03 0.0 0.0 9.0
22  1 1 2   0   0 -1.729923e+02 -1.514223e+03  5.813509e+02  1.631186e+03 0.0 0.0 9.0
 1  1 1 2 103   0  1.729923e+02  1.514223e+03 -2.592966e+03  3.007702e+03 0.0047 0.0 9.0
#pdf 1 21 2.020979e-01 5.115772e-01 5000.0 1.708662e-01 1.452492e-02
</event>
<event>
4 7 1.0 5000.0 7.905138e-03 7.739137e-02
 1 -1 0 0 101   0  0.000000e+00  0.000000e+00  2.249432e+03  2.249432e+03 0.0 0.0 9.0
21 -1 0 0 103 101  0.000000e+00  0.000000e+00 -2.786541e+03  2.786541e+03 0.0 0.0 9.0
22  1 1 2   0   0 -5.619352e+02 -2.172354e+03 -1.385439e+03  2.637107e+03 0.0 0.0 9.0
 1  1 1 2 103   0  5.619352e+02  2.172354e+03  8.483294e+02  2.398866e+03 0.0047 0.0 9.0
#pdf 1 21 3.460664e-01 4.286986e-01 5000.0 6.640298e-02 3.343763e-02
</event>
<event>
4 7 1.0 5000.0 7.905138e-03 7.739137e-02
21 -1 0 0 103 101  0.000000e+00  0.000000e+00  2.099545e+03  2.099545e+03 0.0 0.0 9.0
 1 -1 0 0 101   0  0.000000e+00  0.000000e+00 -2.653451e+03  2.653451e+03 0.0 0.0 9.0
 1  1 1 2 103   0 -8.586697e+02 -1.131230e+02  1.933772e+03  2.118864e+03 0.0047 0.0 9.0
22  1 1 2   0   0  8.586697e+02  1.131230e+02 -2.487678e+03  2.634132e+03 0.0 0.0 9.0
#pdf 21 1 3.230069e-01 4.082232e-01 5000.0 2.717401e-02 9.445191e-03
</event>
<event>
4 7 1.0 5000.0 7.905138e-03 7.739137e-02
 1 -1 0 0 101   0  0.000000e+00  0.000000e+00  2.610691e+03  2.610691e+03 0.0 0.0 9.0
21 -1 0 0 103 101  0.000000e+00  0.000000e+00 -2.374079e+03  2.374079e+03 0.0 0.0 9.0
 1  1 1 2 103   0  2.380644e+03 -2.276391e+02 -5.743560e+02  2.459506e+03 0.0047 0.0 9.0
22  1 1 2   0   0 -2.380644e+03  2.276391e+02  8.109680e+02  2.525263e+03 0.0 0.0 9.0
#pdf 1 21 4.016447e-01 3.652429e-01 5000.0 4.245772e-02 5.725243e-02
</event>
<event>
4 7 1.0 5000.0 7.905138e-03 7.739137e-02
21 -1 0 0 103 101  0.000000e+00  0.000000e+00  2.044532e+03  2.044532e+03 0.0 0.0 9.0
 1 -1 0 0 101   0  0.000000e+00  0.000000e+00 -3.117495e+03  3.117495e+03 0.0 0.0 9.0
 1  1 1 2 103   0  8.113040e+02 -1.794723e+03 -2.151170e+03  2.916638e+03 0.0047 0.0 9.0
22  1 1 2   0   0 -8.113040e+02  1.794723e+03  1.078207e+03  2.245390e+03 0.0 0.0 9.0
#pdf 21 1 3.145434e-01 4.796146e-01 5000.0 3.015126e-02 3.721737e-03
</event>
<event>
4 7 1.0 5000.0 7.905138e-03 7.739137e-02
21 -1 0 0 103 101  0.000000e+00  0.000000e+00  1.527944e+03  1.527944e+03 0.0 0.0 9.0
 1 -1 0 0 101   0  0.000000e+00  0.000000e+00 -3.615411e+03  3.615411e+03 0.0 0.0 9.0
22  1 1 2   0   0  6.666532e+02 -2.041183e+03 -2.089389e+03  2.996064e+03 0.0 0.0 9.0
 1  1 1 2 103   0 -6.666532e+02  2.041183e+03  1.921600e+00  2.147291e+03 0.0047 0.0 9.0
#pdf 21 1 2.350683e-01 5.562170e-01 5000.0 8.040293e-02 1.261790e-03
</event>
<event>
4 7 1.0 5000.0 7.905138e-03 7.739137e-02
 1 -1 0 0 101   0  0.000000e+00  0.000000e+00  1.616258e+03  1.616258e+03 0.0 0.0 9.0
21 -1 0 0 103 101  0.000000e+00  0.000000e+00 -3.769306e+03  3.769306e+03 0.0 0.0 9.0
22  1 1 2   0   0 -2.023552e+03 -1.690591e+02 -2.607326e+03  3.304768e+03 0.0 0.0 9.0
 1  1 1 2 103   0  2.023552e+03  1.690591e+02  4.542771e+02  2.080796e+03 0.0047 0.0 9.0
#pdf 1 21 2.486550e-01 5.798933e-01 5000.0 1.295384e-01 6.316041e-03
</event>
<event>
4 7 1.0 5000.0 7.905138e-03 7.739137e-02
21 -1 0 0 103 101  0.000000e+00  0.000000e+00  3.418072e+03  3.418072e+03 0.0 0.0 9.0
 1 -1 0 0 101   0  0.000000e+00  0.000000e+00 -1.856977e+03  1.856977e+03 0.0 0.0 9.0
 1  1 1 2 103   0  5.544552e+02 -1.035792e+03 -1.552640e+03  1.947043e+03 0.0047 0.0 9.0
22  1 1 2   0   0 -5.544552e+02  1.035792e+03  3.113735e+03  3.328007e+03 0.0 0.0 9.0
#pdf 21 1 5.258573e-01 2.856888e-01 5000.0 1.962308e-03 4.292325e-02
</event>
<event>
4 7 1.0 5000.0 7.905138e-03 7.739137e-02
 1 -1 0 0 101   0  0.000000e+00  0.000000e+00  3.557873e+03  3.557873e+03 0.0 0.0 9.0
21 -1 0 0 103 101  0.000000e+00  0.000000e+00 -1.702539e+03  1.702539e+03 0.0 0.0 9.0
22  1 1 2   0   0 -2.365225e+03  6.764225e+02  8.478335e+02  2.602049e+03 0.0 0.0 9.0
 1  1 1 2 103   0  2.365225e+03 -6.764225e+02  1.007501e+03  2.658363e+03 0.0047 0.0 9.0
#pdf 1 21 5.473650e-01 2.619290e-01 5000.0 9.571855e-03 1.191563e-01
</event>
<event>
4 7 1.0 5000.0 7.905138e-03 7.739137e-02
21 -1 0 0 103 101  0.000000e+00  0.000000e+00  3.223216e+03  3.223216e+03 0.0 0.0 9.0
 1 -1 0 0 101   0  0.000000e+00  0.000000e+00 -1.709912e+03  1.709912e+03 0.0 0.0 9.0
22  1 1 2   0   0  1.044062e+02 -2.340283e+03  5.952804e+02  2.417061e+03 0.0 0.0 9.0
 1  1 1 2 103   0 -1.044062e+02  2.340283e+03  9.180236e+02  2.516067e+03 0.0047 0.0 9.0
#pdf 21 1 4.958794e-01 2.630634e-01 5000.0 2.983213e-03 5.669913e-02
</event>
<event>
4 7 1.0 5000.0 7.905138e-03 7.739137e-02
 1 -1 0 0 101   0  0.000000e+00  0.000000e+00  2.874424e+03  2.874424e+03 0.0 0.0 9.0
21 -1 0 0 103 101  0.000000e+00  0.000000e+00 -1.775002e+03  1.775002e+03 0.0 0.0 9.0
 1  1 1 2 103   0 -2.599998e+02  2.134862e+03 -1.610046e+02  2.156655e+03 0.0047 0.0 9.0
22  1 1 2   0   0  2.599998e+02 -2.134862e+03  1.260426e+03  2.492772e+03 0.0 0.0 9.0
#pdf 1 21 4.422191e-01 2.730773e-01 5000.0 2.951707e-02 1.108962e-01
</event>
<event>
4 7 1.0 5000.0 7.905138e-03 7.739137e-02
 1 -1 0 0 101   0  0.000000e+00  0.000000e+00  2.540052e+03  2.540052e+03 0.0 0.0 9.0
21 -1 0 0 103 101  0.000000e+00  0.000000e+00 -2.621245e+03  2.621245e+03 0.0 0.0 9.0
 1  1 1 2 103   0  1.851675e+03 -1.796147e+03  1.642218e+01  2.579751e+03 0.0047 0.0 9.0
22  1 1 2   0   0 -1.851675e+03  1.796147e+03 -9.761545e+01  2.581545e+03 0.0 0.0 9.0
#pdf 1 21 3.907772e-01 4.032684e-01 5000.0 4.654271e-02 4.187045e-02
</event>
<event>
4 7 1.0 5000.0 7.905138e-03 7.739137e-02
 1 -1 0 0 101   0  0.000000e+00  0.000000e+00  1.641428e+03  1.641428e+03 0.0 0.0 9.0
21 -1 0 0 103 101  0.000000e+00  0.000000e+00 -3.432708e+03  3.432708e+03 0.0 0.0 9.0
 1  1 1 2 103   0  1.460343e+03  6.989262e+02 -2.751025e+03  3.192059e+03 0.0047 0.0 9.0
22  1 1 2   0   0 -1.460343e+03 -6.989262e+02  9.597456e+02  1.882076e+03 0.0 0.0 9.0
#pdf 1 21 2.525273e-01 5.281089e-01 5000.0 1.264485e-01 1.204131e-02
</event>
<event>
4 7 1.0 5000.0 7.905138e-03 7.739137e-02
21 -1 0 0 103 101  0.000000e+00  0.000000e+00  3.596426e+03  3.596426e+03 0.0 0.0 9.0
 1 -1 0 0 101   0  0.000000e+00  0.000000e+00 -1.791279e+03  1.791279e+03 0.0 0.0 9.0
22  1 1 2   0   0 -1.304093e+03 -1.511528e+03 -7.610071e+02  2.136471e+03 0.0 0.0 9.0
 1  1 1 2 103   0  1.304093e+03  1.511528e+03  2.566154e+03  3.251234e+03 0.0047 0.0 9.0
#pdf 21 1 5.532963e-01 2.755814e-01 5000.0 1.316179e-03 4.859538e-02
</event>
<event>
4 7 1.0 5000.0 7.905138e-03 7.739137e-02
 1 -1 0 0 101   0  0.000000e+00  0.000000e+00  4.001586e+03  4.001586e+03 0.0 0.0 9.0
21 -1 0 0 103 101  0.000000e+00  0.000000e+00 -1.534846e+03  1.534846e+03 0.0 0.0 9.0
 1  1 1 2 103   0  1.607308e+03 -1.614920e+03  2.322317e+03  3.253393e+03 0.0047 0.0 9.0
22  1 1 2   0   0 -1.607308e+03  1.614920e+03  1.444233e+02  2.283039e+03 0.0 0.0 9.0
#pdf 1 21 6.156286e-01 2.361301e-01 5000.0 3.820572e-03 1.398868e-01
</event>
<event>
4 7 1.0 5000.0 7.905138e-03 7.739137e-02
 1 -1 0 0 101   0  0.000000e+00  0.000000e+00  2.217337e+03  2.217337e+03 0.0 0.0 9.0
21 -1 0 0 103 101  0.000000e+00  0.000000e+00 -2.832185e+03  2.832185e+03 0.0 0.0 9.0
 1  1 1 2 103   0  1.927549e+03  1.213396e+03 -1.360310e+03  2.652964e+03 0.0047 0.0 9.0
22  1 1 2   0   0 -1.927549e+03 -1.213396e+03  7.454624e+02  2.396558e+03 0.0 0.0 9.0
#pdf 1 21 3.411288e-01 4.357207e-01 5000.0 6.891800e-02 3.136070e-02
</event>
<event>
4 7 1.0 5000.0 7.905138e-03 7.739137e-02
21 -1 0 0 103 101  0.000000e+00  0.000000e+00  3.289066e+03  3.289066e+03 0.0 0.0 9.0
 1 -1 0 0 101   0  0.000000e+00  0.000000e+00 -1.958251e+03  1.958251e+03 0.0 0.0 9.0
22  1 1 2   0   0 -7.620536e+02 -2.303108e+03 -1.053032e+02  2.428193e+03 0.0 0.0 9.0
 1  1 1 2 103   0  7.620536e+02  2.303108e+03  1.436118e+03  2.819125e+03 0.0047 0.0 9.0
#pdf 21 1 5.060102e-01 3.012694e-01 5000.0 2.593183e-03 3.546543e-02
</event>
<event>
4 7 1.0 5000.0 7.905138e-03 7.739137e-02
 1 -1 0 0 101   0  0.000000e+00  0.000000e+00  3.421877e+03  3.421877e+03 0.0 0.0 9.0
21 -1 0 0 103 101  0.000000e+00  0.000000e+00 -1.734479e+03  1.734479e+03 0.0 0.0 9.0
22  1 1 2   0   0 -1.488640e+03 -1.911630e+03  1.113077e+03  2.666331e+03 0.0 0.0 9.0
 1  1 1 2 103   0  1.488640e+03  1.911630e+03  5.743207e+02  2.490025e+03 0.0047 0.0 9.0
#pdf 1 21 5.264426e-01 2.668429e-01 5000.0 1.227522e-02 1.154673e-01
</event>
<event>
4 7 1.0 5000.0 7.905138e-03 7.739137e-02
21 -1 0 0 103 101  0.000000e+00  0.000000e+00  3.859718e+03  3.859718e+03 0.0 0.0 9.0
 1 -1 0 0 101   0  0.000000e+00  0.000000e+00 -1.170951e+03  1.170951e+03 0.0 0.0 9.0
 1  1 1 2 103   0  5.840632e+02 -4.941350e+02  3.691200e+03  3.769650e+03 0.0047 0.0 9.0
22  1 1 2   0   0 -5.840632e+02  4.941350e+02 -1.002433e+03  1.261020e+03 0.0 0.0 9.0
#pdf 21 1 5.938028e-01 1.801464e-01 5000.0 7.081325e-04 1.637846e-01
</event>
<event>
4 7 1.0 5000.0 7.905138e-03 7.739137e-02
21 -1 0 0 103 101  0.000000e+00  0.000000e+00  4.447468e+03  4.447468e+03 0.0 0.0 9.0
 1 -1 0 0 101   0  0.000000e+00  0.000000e+00 -1.437983e+03  1.437983e+03 0.0 0.0 9.0
22  1 1 2   0   0 -6.286621e+02  1.381013e+03 -8.494164e+02  1.738942e+03 0.0 0.0 9.0
 1  1 1 2 103   0  6.286621e+02 -1.381013e+03  3.858902e+03  4.146509e+03 0.0047 0.0 9.0
#pdf 21 1 6.842259e-01 2.212281e-01 5000.0 1.474996e-04 9.575793e-02
</event>
<event>
4 7 1.0 5000.0 7.905138e-03 7.739137e-02
 1 -1 0 0 101   0  0.000000e+00  0.000000e+00  2.431025e+03  2.431025e+03 0.0 0.0 9.0
21 -1 0 0 103 101  0.000000e+00  0.000000e+00 -2.631017e+03  2.631017e+03 0.0 0.0 9.0
 1  1 1 2 103   0 -1.193928e+03 -1.577995e+03 -1.676198e+03  2.593294e+03 0.0047 0.0 9.0
22  1 1 2   0   0  1.193928e+03  1.577995e+03  1.476206e+03  2.468748e+03 0.0 0.0 9.0
#pdf 1 21 3.740039e-01 4.047718e-01 5000.0 5.339477e-02 4.133210e-02
</event>
<event>
4 7 1.0 5000.0 7.905138e-03 7.739137e-02
21 -1 0 0 103 101  0.000000e+00  0.000000e+00  1.772051e+03  1.772051e+03 0.0 0.0 9.0
 1 -1 0 0 101   0  0.000000e+00  0.000000e+00 -3.402634e+03  3.402634e+03 0.0 0.0 9.0
22  1 1 2   0   0  7.385565e+02  2.313119e+03 -4.300812e+02  2.465960e+03 0.0 0.0 9.0
 1  1 1 2 103   0 -7.385565e+02 -2.313119e+03 -1.200502e+03  2.708725e+03 0.0047 0.0 9.0
#pdf 21 1 2.726232e-01 5.234822e-01 5000.0 5.039392e-02 2.029312e-03
</event>
<event>
4 7 1.0 5000.0 7.905138e-03 7.739137e-02
 1 -1 0 0 101   0  0.000000e+00  0.000000e+00  2.632199e+03  2.632199e+03 0.0 0.0 9.0
21 -1 0 0 103 101  0.000000e+00  0.000000e+00 -2.570554e+03  2.570554e+03 0.0 0.0 9.0
 1  1 1 2 103   0 -2.461442e+02 -1.385809e+03 -2.156831e+03  2.575456e+03 0.0047 0.0 9.0
22  1 1 2   0   0  2.461442e+02  1.385809e+03  2.218476e+03  2.627297e+03 0.0 0.0 9.0
#pdf 1 21 4.049537e-01 3.954698e-01 5000.0 4.126730e-02 4.474594e-02
</event>
<event>
4 7 1.0 5000.0 7.905138e-03 7.739137e-02
 1 -1 0 0 101   0  0.000000e+00  0.000000e+00  2.534363e+03  2.534363e+03 0.0 0.0 9.0
21 -1 0 0 103 101  0.000000e+00  0.000000e+00 -2.450379e+03  2.450379e+03 0.0 0.0 9.0
 1  1 1 2 103   0 -8.694965e+02 -1.425519e+03  1.892125e+03  2.523542e+03 0.0047 0.0 9.0
22  1 1 2   0   0  8.694965e+02  1.425519e+03 -1.808141e+03  2.461199e+03 0.0 0.0 9.0
#pdf 1 21 3.899020e-01 3.769813e-01 5000.0 4.688342e-02 5.213435e-02
</event>
<event>
4 7 1.0 5000.0 7.905138e-03 7.739137e-02
21 -1 0 0 103 101  0.000000e+00  0.000000e+00  2.799655e+03  2.799655e+03 0.0 0.0 9.0
 1 -1 0 0 101   0  0.000000e+00  0.000000e+00 -2.211571e+03  2.211571e+03 0.0 0.0 9.0
 1  1 1 2 103   0 -2.729726e+02 -4.750026e+02 -2.150086e+03  2.218786e+03 0.0047 0.0 9.0
22  1 1 2   0   0  2.729726e+02  4.750026e+02  2.738170e+03  2.792440e+03 0.0 0.0 9.0
#pdf 21 1 4.307162e-01 3.402417e-01 5000.0 7.085802e-03 2.199769e-02
</event>
<event>
4 7 1.0 5000.0 7.905138e-03 7.739137e-02
21 -1 0 0 103 101  0.000000e+00  0.000000e+00  2.387324e+03  2.387324e+03 0.0 0.0 9.0
 1 -1 0 0 101   0  0.000000e+00  0.000000e+00 -2.425557e+03  2.425557e+03 0.0 0.0 9.0
22  1 1 2   0   0  8.353572e+02  2.207648e+03  4.489369e+02  2.402722e+03 0.0 0.0 9.0
 1  1 1 2 103   0 -8.353572e+02 -2.207648e+03 -4.871692e+02  2.410159e+03 0.0047 0.0 9.0
#pdf 21 1 3.672807e-01 3.731626e-01 5000.0 1.576468e-02 1.465827e-02
</event>
<event>
4 7 1.0 5000.0 7.905138e-03 7.739137e-02
 1 -1 0 0 101   0  0.000000e+00  0.000000e+00  3.021998e+03  3.021998e+03 0.0 0.0 9.0
21 -1 0 0 103 101  0.000000e+00  0.000000e+00 -2.152090e+03  2.152090e+03 0.0 0.0 9.0
22  1 1 2   0   0  7.475728e+02 -7.199277e+02  2.798066e+03  2.984349e+03 0.0 0.0 9.0
 1  1 1 2 103   0 -7.475728e+02  7.199277e+02 -1.928158e+03  2.189739e+03 0.0047 0.0 9.0
#pdf 1 21 4.649227e-01 3.310907e-01 5000.0 2.370414e-02 7.424240e-02
</event>
<event>
4 7 1.0 5000.0 7.905138e-03 7.739137e-02
21 -1 0 0 103 101  0.000000e+00  0.000000e+00  3.999376e+03  3.999376e+03 0.0 0.0 9.0
 1 -1 0 0 101   0  0.000000e+00  0.000000e+00 -1.499486e+03  1.499486e+03 0.0 0.0 9.0
22  1 1 2   0   0 -6.732799e+02 -1.580712e+03  3.209118e+03  3.640110e+03 0.0 0.0 9.0
 1  1 1 2 103   0  6.732799e+02  1.580712e+03 -7.092281e+02  1.858753e+03 0.0047 0.0 9.0
#pdf 21 1 6.152887e-01 2.306902e-01 5000.0 5.008471e-04 8.490321e-02
</event>
<event>
4 7 1.0 5000.0 7.905138e-03 7.739137e-02
21 -1 0 0 103 101  0.000000e+00  0.000000e+00  2.952200e+03  2.952200e+03 0.0 0.0 9.0
 1 -1 0 0 101   0  0.000000e+00  0.000000e+00 -2.182213e+03  2.182213e+03 0.0 0.0 9.0
 1  1 1 2 103   0 -1.806637e+03  1.719552e+03  8.610505e+02  2.638599e+03 0.0047 0.0 9.0
22  1 1 2   0   0  1.806637e+03 -1.719552e+03 -9.106323e+01  2.495814e+03 0.0 0.0 9.0
#pdf 21 1 4.541846e-01 3.357250e-01 5000.0 5.224156e-03 2.325291e-02
</event>
<event>
4 7 1.0 5000.0 7.905138e-03 7.739137e-02
 1 -1 0 0 101   0  0.000000e+00  0.000000e+00  3.709133e+03  3.709133e+03 0.0 0.0 9.0
21 -1 0 0 103 101  0.000000e+00  0.000000e+00 -1.529630e+03  1.529630e+03 0.0 0.0 9.0
 1  1 1 2 103   0  1.287130e+03  1.753428e+03  2.221269e+01  2.175249e+03 0.0047 0.0 9.0
22  1 1 2   0   0 -1.287130e+03 -1.753428e+03  2.157290e+03  3.063514e+03 0.0 0.0 9.0
#pdf 1 21 5.706358e-01 2.353277e-01 5000.0 7.137175e-03 1.405688e-01
</event>
<event>
4 7 1.0 5000.0 7.905138e-03 7.739137e-02
21 -1 0 0 103 101  0.000000e+00  0.000000e+00  2.793371e+03  2.793371e+03 0.0 0.0 9.0
 1 -1 0 0 101   0  0.000000e+00  0.000000e+00 -2.140287e+03  2.140287e+03 0.0 0.0 9.0
22  1 1 2   0   0 -1.983150e+03 -4.556121e+02  1.694362e+03  2.647891e+03 0.0 0.0 9.0
 1  1 1 2 103   0  1.983150e+03  4.556121e+02 -1.041278e+03  2.285766e+03 0.0047 0.0 9.0
#pdf 21 1 4.297493e-01 3.292749e-01 5000.0 7.174015e-03 2.516868e-02
</event>
<event>
4 7 1.0 5000.0 7.905138e-03 7.739137e-02
21 -1 0 0 103 101  0.000000e+00  0.000000e+00  2.405575e+03  2.405575e+03 0.0 0.0 9.0
 1 -1 0 0 101   0  0.000000e+00  0.000000e+00 -2.602889e+03  2.602889e+03 0.0 0.0 9.0
 1  1 1 2 103   0  2.223824e+03  6.109065e+02 -1.070412e+03  2.542515e+03 0.0047 0.0 9.0
22  1 1 2   0   0 -2.223824e+03 -6.109065e+02  8.730986e+02  2.465949e+03 0.0 0.0 9.0
#pdf 21 1 3.700885e-01 4.004445e-01 5000.0 1.521898e-02 1.042135e-02
</event>
<event>
4 7 1.0 5000.0 7.905138e-03 7.739137e-02
 1 -1 0 0 101   0  0.000000e+00  0.000000e+00  1.564363e+03  1.564363e+03 0.0 0.0 9.0
21 -1 0 0 103 101  0.000000e+00  0.000000e+00 -4.172773e+03  4.172773e+03 0.0 0.0 9.0
 1  1 1 2 103   0 -2.463282e+03 -4.231968e+02 -1.899241e+03  3.139103e+03 0.0047 0.0 9.0
22  1 1 2   0   0  2.463282e+03  4.231968e+02 -7.091684e+02  2.598032e+03 0.0 0.0 9.0
#pdf 1 21 2.406712e-01 6.419650e-01 5000.0 1.360696e-01 2.542517e-03
</event>
<event>
4 7 1.0 5000.0 7.905138e-03 7.739137e-02
21 -1 0 0 103 101  0.000000e+00  0.000000e+00  2.802205e+03  2.802205e+03 0.0 0.0 9.0
 1 -1 0 0 101   0  0.000000e+00  0.000000e+00 -2.218880e+03  2.218880e+03 0.0 0.0 9.0
22  1 1 2   0   0 -1.906325e+03 -1.294476e+03  1.251057e+03  2.622000e+03 0.0 0.0 9.0
 1  1 1 2 103   0  1.906325e+03  1.294476e+03 -6.677322e+02  2.399085e+03 0.0047 0.0 9.0
#pdf 21 1 4.311084e-01 3.413661e-01 5000.0 7.050364e-03 2.169708e-02
</event>
<event>
4 7 1.0 5000.0 7.905138e-03 7.739137e-02
21 -1 0 0 103 101  0.000000e+00  0.000000e+00  2.695583e+03  2.695583e+03 0.0 0.0 9.0
 1 -1 0 0 101   0  0.000000e+00  0.000000e+00 -2.358854e+03  2.358854e+03 0.0 0.0 9.0
 1  1 1 2 103   0 -2.456517e+03  5.665028e+01  7.360203e+02  2.565036e+03 0.0047 0.0 9.0
22  1 1 2   0   0  2.456517e+03 -5.665028e+01 -3.992919e+02  2.489401e+03 0.0 0.0 9.0
#pdf 21 1 4.147050e-01 3.629007e-01 5000.0 8.697253e-03 1.664627e-02
</event>
<event>
4 7 1.0 5000.0 7.905138e-03 7.739137e-02
 1 -1 0 0 101   0  0.000000e+00  0.000000e+00  2.690944e+03  2.690944e+03 0.0 0.0 9.0
21 -1 0 0 103 101  0.000000e+00  0.000000e+00 -2.169669e+03  2.169669e+03 0.0 0.0 9.0
22  1 1 2   0   0  1.979955e+03 -1.381543e+03  1.622135e+02  2.419751e+03 0.0 0.0 9.0
 1  1 1 2 103   0 -1.979955e+03  1.381543e+03  3.590608e+02  2.440862e+03 0.0047 0.0 9.0
#pdf 1 21 4.139913e-01 3.337953e-01 5000.0 3.814259e-02 7.277878e-02
</event>
<event>
4 7 1.0 5000.0 7.905138e-03 7.739137e-02
21 -1 0 0 103 101  0.000000e+00  0.000000e+00  3.365423e+03  3.365423e+03 0.0 0.0 9.0
 1 -1 0 0 101   0  0.000000e+00  0.000000e+00 -1.818211e+03  1.818211e+03 0.0 0.0 9.0
 1  1 1 2 103   0 -2.029899e+02 -1.888420e+03  2.434139e+03  3.087453e+03 0.0047 0.0 9.0
22  1 1 2   0   0  2.029899e+02  1.888420e+03 -8.869271e+02  2.096181e+03 0.0 0.0 9.0
#pdf 21 1 5.177573e-01 2.797248e-01 5000.0 2.200427e-03 4.618114e-02
</event>
<event>
4 7 1.0 5000.0 7.905138e-03 7.739137e-02
 1 -1 0 0 101   0  0.000000e+00  0.000000e+00  2.666868e+03  2.666868e+03 0.0 0.0 9.0
21 -1 0 0 103 101  0.000000e+00  0.000000e+00 -2.322972e+03  2.322972e+03 0.0 0.0 9.0
 1  1 1 2 103   0  1.010068e+03 -3.282274e+02  2.428332e+03  2.650428e+03 0.0047 0.0 9.0
22  1 1 2   0   0 -1.010068e+03  3.282274e+02 -2.084436e+03  2.339411e+03 0.0 0.0 9.0
#pdf 1 21 4.102873e-01 3.573803e-01 5000.0 3.940124e-02 6.088098e-02
</event>
<event>
4 7 1.0 5000.0 7.905138e-03 7.739137e-02
 1 -1 0 0 101   0  0.000000e+00  0.000000e+00  2.228603e+03  2.228603e+03 0.0 0.0 9.0
21 -1 0 0 103 101  0.000000e+00  0.000000e+00 -2.750961e+03  2.750961e+03 0.0 0.0 9.0
22  1 1 2   0   0  5.807226e+02 -5.858176e+02  2.086378e+03  2.243522e+03 0.0 0.0 9.0
 1  1 1 2 103   0 -5.807226e+02  5.858176e+02 -2.608736e+03  2.736042e+03 0.0047 0.0 9.0
#pdf 1 21 3.428620e-01 4.232248e-01 5000.0 6.802772e-02 3.513444e-02
</event>
<event>
4 7 1.0 5000.0 7.905138e-03 7.739137e-02
21 -1 0 0 103 101  0.000000e+00  0.000000e+00  2.791140e+03  2.791140e+03 0.0 0.0 9.0
 1 -1 0 0 101   0  0.000000e+00  0.000000e+00 -2.273088e+03  2.273088e+03 0.0 0.0 9.0
 1  1 1 2 103   0  1.401117e+03 -1.823686e+03 -7.737890e+02  2.426461e+03 0.0047 0.0 9.0
22  1 1 2   0   0 -1.401117e+03  1.823686e+03  1.291841e+03  2.637767e+03 0.0 0.0 9.0
#pdf 21 1 4.294062e-01 3.497058e-01 5000.0 7.205633e-03 1.959062e-02
</event>
<event>
4 7 1.0 5000.0 7.905138e-03 7.739137e-02
21 -1 0 0 103 101  0.000000e+00  0.000000e+00  2.671977e+03  2.671977e+03 0.0 0.0 9.0
 1 -1 0 0 101   0  0.000000e+00  0.000000e+00 -2.313422e+03  2.313422e+03 0.0 0.0 9.0
 1  1 1 2 103   0 -7.889789e+02  3.867618e+02  2.511114e+03  2.660407e+03 0.0047 0.0 9.0
22  1 1 2   0   0  7.889789e+02 -3.867618e+02 -2.152559e+03  2.324991e+03 0.0 0.0 9.0
#pdf 21 1 4.110734e-01 3.559111e-01 5000.0 9.108461e-03 1.813790e-02
</event>
<event>
4 7 1.0 5000.0 7.905138e-03 7.739137e-02
21 -1 0 0 103 101  0.000000e+00  0.000000e+00  2.549756e+03  2.549756e+03 0.0 0.0 9.0
 1 -1 0 0 101   0  0.000000e+00  0.000000e+00 -2.451842e+03  2.451842e+03 0.0 0.0 9.0
22  1 1 2   0   0  1.334494e+03  5.776746e+01 -2.065068e+03  2.459414e+03 0.0 0.0 9.0
 1  1 1 2 103   0 -1.334494e+03 -5.776746e+01  2.162981e+03  2.542184e+03 0.0047 0.0 9.0
#pdf 21 1 3.922701e-01 3.772065e-01 5000.0 1.154885e-02 1.395097e-02
</event>
<event>
4 7 1.0 5000.0 7.905138e-03 7.739137e-02
 1 -1 0 0 101   0  0.000000e+00  0.000000e+00  2.560075e+03  2.560075e+03 0.0 0.0 9.0
21 -1 0 0 103 101  0.000000e+00  0.000000e+00 -2.415763e+03  2.415763e+03 0.0 0.0 9.0
22  1 1 2   0   0  5.091050e+01  5.344148e+02  2.501417e+03  2.558374e+03 0.0 0.0 9.0
 1  1 1 2 103   0 -5.091050e+01 -5.344148e+02 -2.357105e+03  2.417465e+03 0.0047 0.0 9.0
#pdf 1 21 3.938577e-01 3.716559e-01 5000.0 4.535758e-02 5.440062e-02
</event>
<event>
4 7 1.0 5000.0 7.905138e-03 7.739137e-02
 1 -1 0 0 101   0  0.000000e+00  0.000000e+00  1.843068e+03  1.843068e+03 0.0 0.0 9.0
21 -1 0 0 103 101  0.000000e+00  0.000000e+00 -3.491178e+03  3.491178e+03 0.0 0.0 9.0
22  1 1 2   0   0  8.323011e+02 -1.302074e+03 -2.939095e+03  3.320602e+03 0.0 0.0 9.0
 1  1 1 2 103   0 -8.323011e+02  1.302074e+03  1.290984e+03  2.013644e+03 0.0047 0.0 9.0
#pdf 1 21 2.835489e-01 5.371043e-01 5000.0 1.035082e-01 1.082943e-02
</event>
<event>
4 7 1.0 5000.0 7.905138e-03 7.739137e-02
21 -1 0 0 103 101  0.000000e+00  0.000000e+00  2.102141e+03  2.102141e+03 0.0 0.0 9.0
 1 -1 0 0 101   0  0.000000e+00  0.000000e+00 -2.804089e+03  2.804089e+03 0.0 0.0 9.0
 1  1 1 2 103   0 -3.155320e+02  1.658754e+03 -2.113690e+03  2.705312e+03 0.0047 0.0 9.0
22  1 1 2   0   0  3.155320e+02 -1.658754e+03  1.411742e+03  2.200919e+03 0.0 0.0 9.0
#pdf 21 1 3.234063e-01 4.313984e-01 5000.0 2.704157e-02 7.024295e-03
</event>
<event>
4 7 1.0 5000.0 7.905138e-03 7.739137e-02
21 -1 0 0 103 101  0.000000e+00  0.000000e+00  3.424508e+03  3.424508e+03 0.0 0.0 9.0
 1 -1 0 0 101   0  0.000000e+00  0.000000e+00 -1.742973e+03  1.742973e+03 0.0 0.0 9.0
22  1 1 2   0   0  1.860214e+03 -5.269559e+02  2.420303e+03  3.097733e+03 0.0 0.0 9.0
 1  1 1 2 103   0 -1.860214e+03  5.269559e+02 -7.387678e+02  2.069748e+03 0.0047 0.0 9.0
#pdf 21 1 5.268474e-01 2.681497e-01 5000.0 1.934977e-03 5.324468e-02
</event>
<event>
4 7 1.0 5000.0 7.905138e-03 7.739137e-02
21 -1 0 0 103 101  0.000000e+00  0.000000e+00  1.376962e+03  1.376962e+03 0.0 0.0 9.0
 1 -1 0 0 101   0  0.000000e+00  0.000000e+00 -4.550589e+03  4.550589e+03 0.0 0.0 9.0
22  1 1 2   0   0  3.284411e+02 -1.042988e+03 -4.252855e+03  4.391181e+03 0.0 0.0 9.0
 1  1 1 2 103   0 -3.284411e+02  1.042988e+03  1.079228e+03  1.536369e+03 0.0047 0.0 9.0
#pdf 21 1 2.118402e-01 7.000906e-01 5000.0 1.079669e-01 1.079986e-04
</event>
<event>
4 7 1.0 5000.0 7.905138e-03 7.739137e-02
21 -1 0 0 103 101  0.000000e+00  0.000000e+00  3.202059e+03  3.202059e+03 0.0 0.0 9.0
 1 -1 0 0 101   0  0.000000e+00  0.000000e+00 -1.849763e+03  1.849763e+03 0.0 0.0 9.0
22  1 1 2   0   0 -1.140470e+03  9.589622e+02 -1.320992e+03  1.991307e+03 0.0 0.0 9.0
 1  1 1 2 103   0  1.140470e+03 -9.589622e+02  2.673289e+03  3.060515e+03 0.0047 0.0 9.0
#pdf 21 1 4.926245e-01 2.845789e-01 5000.0 3.118995e-03 4.350693e-02
</event>
<event>
4 7 1.0 5000.0 7.905138e-03 7.739137e-02
21 -1 0 0 103 101  0.000000e+00  0.000000e+00  2.689458e+03  2.689458e+03 0.0 0.0 9.0
 1 -1 0 0 101   0  0.000000e+00  0.000000e+00 -2.323979e+03  2.323979e+03 0.0 0.0 9.0
 1  1 1 2 103   0  4.029787e+02  2.399193e+03  7.602293e+02  2.548817e+03 0.0047 0.0 9.0
22  1 1 2   0   0 -4.029787e+02 -2.399193e+03 -3.947499e+02  2.464619e+03 0.0 0.0 9.0
#pdf 21 1 4.137628e-01 3.575352e-01 5000.0 8.802102e-03 1.777788e-02
</event>
<event>
4 7 1.0 5000.0 7.905138e-03 7.739137e-02
 1 -1 0 0 101   0  0.000000e+00  0.000000e+00  2.726609e+03  2.726609e+03 0.0 0.0 9.0
21 -1 0 0 103 101  0.000000e+00  0.000000e+00 -2.317017e+03  2.317017e+03 0.0 0.0 9.0
 1  1 1 2 103   0  1.118551e+03  4.638993e+01  2.462651e+03  2.705173e+03 0.0047 0.0 9.0
22  1 1 2   0   0 -1.118551e+03 -4.638993e+01 -2.053059e+03  2.338453e+03 0.0 0.0 9.0
#pdf 1 21 4.194783e-01 3.564641e-01 5000.0 3.633294e-02 6.131459e-02
</event>
<event>
4 7 1.0 5000.0 7.905138e-03 7.739137e-02
 1 -1 0 0 101   0  0.000000e+00  0.000000e+00  2.245835e+03  2.245835e+03 0.0 0.0 9.0
21 -1 0 0 103 101  0.000000e+00  0.000000e+00 -2.660353e+03  2.660353e+03 0.0 0.0 9.0
 1  1 1 2 103   0  1.424182e+02  1.441112e+03  1.768977e+03  2.286124e+03 0.0047 0.0 9.0
22  1 1 2   0   0 -1.424182e+02 -1.441112e+03 -2.183494e+03  2.620064e+03 0.0 0.0 9.0
#pdf 1 21 3.455131e-01 4.092851e-01 5000.0 6.668157e-02 3.974698e-02
</event>
<event>
4 7 1.0 5000.0 7.905138e-03 7.739137e-02
 1 -1 0 0 101   0  0.000000e+00  0.000000e+00  3.169561e+03  3.169561e+03 0.0 0.0 9.0
21 -1 0 0 103 101  0.000000e+00  0.000000e+00 -1.888540e+03  1.888540e+03 0.0 0.0 9.0
22  1 1 2   0   0 -1.314025e+03 -1.289650e+03  2.306015e+03  2.950858e+03 0.0 0.0 9.0
 1  1 1 2 103   0  1.314025e+03  1.289650e+03 -1.024994e+03  2.107243e+03 0.0047 0.0 9.0
#pdf 1 21 4.876248e-01 2.905446e-01 5000.0 1.880825e-02 9.877547e-02
</event>
<event>
4 7 1.0 5000.0 7.905138e-03 7.739137e-02
 1 -1 0 0 101   0  0.000000e+00  0.000000e+00  3.148290e+03  3.148290e+03 0.0 0.0 9.0
21 -1 0 0 103 101  0.000000e+00  0.000000e+00 -2.111506e+03  2.111506e+03 0.0 0.0 9.0
 1  1 1 2 103   0 -1.559680e+03  1.974181e+03 -5.648184e+01  2.516582e+03 0.0047 0.0 9.0
22  1 1 2   0   0  1.559680e+03 -1.974181e+03  1.093266e+03  2.743214e+03 0.0 0.0 9.0
#pdf 1 21 4.843523e-01 3.248470e-01 5000.0 1.946124e-02 7.770265e-02
</event>
<event>
4 7 1.0 5000.0 7.905138e-03 7.739137e-02
21 -1 0 0 103 101  0.000000e+00  0.000000e+00  1.685735e+03  1.685735e+03 0.0 0.0 9.0
 1 -1 0 0 101   0  0.000000e+00  0.000000e+00 -3.551107e+03  3.551107e+03 0.0 0.0 9.0
22  1 1 2   0   0  8.896869e+01 -2.437959e+03 -1.131935e+03  2.689394e+03 0.0 0.0 9.0
 1  1 1 2 103   0 -8.896869e+01  2.437959e+03 -7.334369e+02  2.547448e+03 0.0047 0.0 9.0
#pdf 21 1 2.593438e-01 5.463242e-01 5000.0 5.939415e-02 1.459498e-03
</event>
<event>
4 7 1.0 5000.0 7.905138e-03 7.739137e-02
 1 -1 0 0 101   0  0.000000e+00  0.000000e+00  2.361574e+03  2.361574e+03 0.0 0.0 9.0
21 -1 0 0 103 101  0.000000e+00  0.000000e+00 -2.717465e+03  2.717465e+03 0.0 0.0 9.0
22  1 1 2   0   0 -2.389198e+03  8.384422e+02 -9.874775e+01  2.533970e+03 0.0 0.0 9.0
 1  1 1 2 103   0  2.389198e+03 -8.384422e+02 -2.571432e+02  2.545069e+03 0.0047 0.0 9.0
#pdf 1 21 3.633191e-01 4.180715e-01 5000.0 5.812686e-02 3.679070e-02
</event>
<event>
4 7 1.0 5000.0 7.905138e-03 7.739137e-02
21 -1 0 0 103 101  0.000000e+00  0.000000e+00  2.171753e+03  2.171753e+03 0.0 0.0 9.0
 1 -1 0 0 101   0  0.000000e+00  0.000000e+00 -2.775251e+03  2.775251e+03 0.0 0.0 9.0
22  1 1 2   0   0  2.036543e+03 -8.913344e+01 -1.680149e+03  2.641657e+03 0.0 0.0 9.0
 1  1 1 2 103   0 -2.036543e+03  8.913344e+01  1.076651e+03  2.305348e+03 0.0047 0.0 9.0
#pdf 21 1 3.341159e-01 4.269617e-01 5000.0 2.371804e-02 7.435830e-03
</event>
<event>
4 7 1.0 5000.0 7.905138e-03 7.739137e-02
 1 -1 0 0 101   0  0.000000e+00  0.000000e+00  2.429544e+03  2.429544e+03 0.0 0.0 9.0
21 -1 0 0 103 101  0.000000e+00  0.000000e+00 -2.497319e+03  2.497319e+03 0.0 0.0 9.0
22  1 1 2   0   0  1.184459e+03 -1.381819e+03  1.626083e+03  2.440597e+03 0.0 0.0 9.0
 1  1 1 2 103   0 -1.184459e+03  1.381819e+03 -1.693857e+03  2.486266e+03 0.0047 0.0 9.0
#pdf 1 21 3.737760e-01 3.842029e-01 5000.0 5.349187e-02 4.915123e-02
</event>
<event>
4 7 1.0 5000.0 7.905138e-03 7.739137e-02
 1 -1 0 0 101   0  0.000000e+00  0.000000e+00  3.580257e+03  3.580257e+03 0.0 0.0 9.0
21 -1 0 0 103 101  0.000000e+00  0.000000e+00 -1.731554e+03  1.731554e+03 0.0 0.0 9.0
22  1 1 2   0   0  1.114718e+02 -1.061999e+03  3.323603e+03  3.490932e+03 0.0 0.0 9.0
 1  1 1 2 103   0 -1.114718e+02  1.061999e+03 -1.474900e+03  1.820879e+03 0.0047 0.0 9.0
#pdf 1 21 5.508088e-01 2.663930e-01 5000.0 9.171881e-03 1.158019e-01
</event>
<event>
4 7 1.0 5000.0 7.905138e-03 7.739137e-02
 1 -1 0 0 101   0  0.000000e+00  0.000000e+00  2.578513e+03  2.578513e+03 0.0 0.0 9.0
21 -1 0 0 103 101  0.000000e+00  0.000000e+00 -2.463457e+03  2.463457e+03 0.0 0.0 9.0
 1  1 1 2 103   0 -1.938058e+03  8.460414e+02 -1.314032e+03  2.489686e+03 0.0047 0.0 9.0
22  1 1 2   0   0  1.938058e+03 -8.460414e+02  1.429089e+03  2.552283e+03 0.0 0.0 9.0
#pdf 1 21 3.966943e-01 3.789933e-01 5000.0 4.428530e-02 5.129213e-02
</event>
<event>
4 7 1.0 5000.0 7.905138e-03 7.739137e-02
 1 -1 0 0 101   0  0.000000e+00  0.000000e+00  4.204739e+03  4.204739e+03 0.0 0.0 9.0
21 -1 0 0 103 101  0.000000e+00  0.000000e+00 -1.493251e+03  1.493251e+03 0.0 0.0 9.0
 1  1 1 2 103   0 -7.025977e+02  2.070541e+03  2.747312e+03  3.511197e+03 0.0047 0.0 9.0
22  1 1 2   0   0  7.025977e+02 -2.070541e+03 -3.582358e+01  2.186793e+03 0.0 0.0 9.0
#pdf 1 21 6.468830e-01 2.297309e-01 5000.0 2.346831e-03 1.453875e-01
</event>
<event>
4 7 1.0 5000.0 7.905138e-03 7.739137e-02
 1 -1 0 0 101   0  0.000000e+00  0.000000e+00  3.653550e+03  3.653550e+03 0.0 0.0 9.0
21 -1 0 0 103 101  0.000000e+00  0.000000e+00 -1.620906e+03  1.620906e+03 0.0 0.0 9.0
 1  1 1 2 103   0  2.107217e+03  2.077870e+02  2.316101e+03  3.138131e+03 0.0047 0.0 9.0
22  1 1 2   0   0 -2.107217e+03 -2.077870e+02 -2.834573e+02  2.136326e+03 0.0 0.0 9.0
#pdf 1 21 5.620846e-01 2.493702e-01 5000.0 7.973695e-03 1.289641e-01
</event>
<event>
4 7 1.0 5000.0 7.905138e-03 7.739137e-02
 1 -1 0 0 101   0  0.000000e+00  0.000000e+00  3.228395e+03  3.228395e+03 0.0 0.0 9.0
21 -1 0 0 103 101  0.000000e+00  0.000000e+00 -2.019702e+03  2.019702e+03 0.0 0.0 9.0
 1  1 1 2 103   0  7.051761e+02 -1.908241e+03 -9.815752e+02  2.258793e+03 0.0047 0.0 9.0
22  1 1 2   0   0 -7.051761e+02  1.908241e+03  2.190269e+03  2.989303e+03 0.0 0.0 9.0
#pdf 1 21 4.966761e-01 3.107233e-01 5000.0 1.708944e-02 8.594999e-02
</event>
<event>
4 7 1.0 5000.0 7.905138e-03 7.739137e-02
21 -1 0 0 103 101  0.000000e+00  0.000000e+00  4.575234e+03  4.575234e+03 0.0 0.0 9.0
 1 -1 0 0 101   0  0.000000e+00  0.000000e+00 -1.468416e+03  1.468416e+03 0.0 0.0 9.0
 1  1 1 2 103   0  2.314383e+03 -6.503082e+02  4.236406e+02  2.441053e+03 0.0047 0.0 9.0
22  1 1 2   0   0 -2.314383e+03  6.503082e+02  2.683177e+03  3.602597e+03 0.0 0.0 9.0
#pdf 21 1 7.038821e-01 2.259102e-01 5000.0 1.000367e-04 9.019224e-02
</event>
<event>
4 7 1.0 5000.0 7.905138e-03 7.739137e-02
21 -1 0 0 103 101  0.000000e+00  0.000000e+00  3.500967e+03  3.500967e+03 0.0 0.0 9.0
 1 -1 0 0 101   0  0.000000e+00  0.000000e+00 -1.664982e+03  1.664982e+03 0.0 0.0 9.0
22  1 1 2   0   0 -4.816292e+01  9.337252e+02  3.299425e+03  3.429339e+03 0.0 0.0 9.0
 1  1 1 2 103   0  4.816292e+01 -9.337252e+02 -1.463439e+03  1.736611e+03 0.0047 0.0 9.0
#pdf 21 1 5.386104e-01 2.561511e-01 5000.0 1.632335e-03 6.182011e-02
</event>
<event>
4 7 1.0 5000.0 7.905138e-03 7.739137e-02
 1 -1 0 0 101   0  0.000000e+00  0.000000e+00  2.440469e+03  2.440469e+03 0.0 0.0 9.0
21 -1 0 0 103 101  0.000000e+00  0.000000e+00 -2.413864e+03  2.413864e+03 0.0 0.0 9.0
 1  1 1 2 103   0  1.278199e+03 -4.565088e+02  2.025488e+03  2.438195e+03 0.0047 0.0 9.0
22  1 1 2   0   0 -1.278199e+03  4.565088e+02 -1.998883e+03  2.416139e+03 0.0 0.0 9.0
#pdf 1 21 3.754568e-01 3.713637e-01 5000.0 5.277772e-02 5.452723e-02
</event>
<event>
4 7 1.0 5000.0 7.905138e-03 7.739137e-02
 1 -1 0 0 101   0  0.000000e+00  0.000000e+00  2.691289e+03  2.691289e+03 0.0 0.0 9.0
21 -1 0 0 103 101  0.000000e+00  0.000000e+00 -2.329669e+03  2.329669e+03 0.0 0.0 9.0
 1  1 1 2 103   0  3.526006e+02 -5.291030e+02  2.609002e+03  2.685362e+03 0.0047 0.0 9.0
22  1 1 2   0   0 -3.526006e+02  5.291030e+02 -2.247383e+03  2.335595e+03 0.0 0.0 9.0
#pdf 1 21 4.140444e-01 3.584106e-01 5000.0 3.812478e-02 6.039636e-02
</event>
<event>
4 7 1.0 5000.0 7.905138e-03 7.739137e-02
 1 -1 0 0 101   0  0.000000e+00  0.000000e+00  2.179029e+03  2.179029e+03 0.0 0.0 9.0
21 -1 0 0 103 101  0.000000e+00  0.000000e+00 -2.556428e+03  2.556428e+03 0.0 0.0 9.0
 1  1 1 2 103   0 -1.871602e+03  1.248850e+03 -9.037211e+02  2.424713e+03 0.0047 0.0 9.0
22  1 1 2   0   0  1.871602e+03 -1.248850e+03  5.263222e+02  2.310744e+03 0.0 0.0 9.0
#pdf 1 21 3.352352e-01 3.932966e-01 5000.0 7.200839e-02 4.557186e-02
</event>
<event>
4 7 1.0 5000.0 7.905138e-03 7.739137e-02
 1 -1 0 0 101   0  0.000000e+00  0.000000e+00  3.168909e+03  3.168909e+03 0.0 0.0 9.0
21 -1 0 0 103 101  0.000000e+00  0.000000e+00 -1.926238e+03  1.926238e+03 0.0 0.0 9.0
22  1 1 2   0   0 -1.788403e+03  1.225860e+03 -6.000114e+02  2.249696e+03 0.0 0.0 9.0
 1  1 1 2 103   0  1.788403e+03 -1.225860e+03  1.842682e+03  2.845452e+03 0.0047 0.0 9.0
#pdf 1 21 4.875245e-01 2.963444e-01 5000.0 1.882800e-02 9.496044e-02
</event>
<event>
4 7 1.0 5000.0 7.905138e-03 7.739137e-02
 1 -1 0 0 101   0  0.000000e+00  0.000000e+00  2.451215e+03  2.451215e+03 0.0 0.0 9.0
21 -1 0 0 103 101  0.000000e+00  0.000000e+00 -2.400528e+03  2.400528e+03 0.0 0.0 9.0
22  1 1 2   0   0 -1.924531e+03 -1.455131e+03 -2.256287e+02  2.423249e+03 0.0 0.0 9.0
 1  1 1 2 103   0  1.924531e+03  1.455131e+03  2.763156e+02  2.428493e+03 0.0047 0.0 9.0
#pdf 1 21 3.771099e-01 3.693120e-01 5000.0 5.208028e-02 5.542721e-02
</event>
<event>
4 7 1.0 5000.0 7.905138e-03 7.739137e-02
 1 -1 0 0 101   0  0.000000e+00  0.000000e+00  1.565222e+03  1.565222e+03 0.0 0.0 9.0
21 -1 0 0 103 101  0.000000e+00  0.000000e+00 -4.018159e+03  4.018159e+03 0.0 0.0 9.0
22  1 1 2   0   0 -3.574492e+02 -2.142175e+03  1.695099e+02  2.178398e+03 0.0 0.0 9.0
 1  1 1 2 103   0  3.574492e+02  2.142175e+03 -2.622447e+03  3.404983e+03 0.0047 0.0 9.0
#pdf 1 21 2.408034e-01 6.181783e-01 5000.0 1.359596e-01 3.678377e-03
</event>
<event>
4 7 1.0 5000.0 7.905138e-03 7.739137e-02
21 -1 0 0 103 101  0.000000e+00  0.000000e+00  2.741709e+03  2.741709e+03 0.0 0.0 9.0
 1 -1 0 0 101   0  0.000000e+00  0.000000e+00 -2.229065e+03  2.229065e+03 0.0 0.0 9.0
22  1 1 2   0   0  9.224587e+02 -2.226685e+02  2.551307e+03  2.722072e+03 0.0 0.0 9.0
 1  1 1 2 103   0 -9.224587e+02  2.226685e+02 -2.038663e+03  2.248702e+03 0.0047 0.0 9.0
#pdf 21 1 4.218014e-01 3.429331e-01 5000.0 7.945420e-03 2.128537e-02
</event>
<event>
4 7 1.0 5000.0 7.905138e-03 7.739137e-02
21 -1 0 0 103 101  0.000000e+00  0.000000e+00  2.685945e+03  2.685945e+03 0.0 0.0 9.0
 1 -1 0 0 101   0  0.000000e+00  0.000000e+00 -2.218982e+03  2.218982e+03 0.0 0.0 9.0
22  1 1 2   0   0  2.424432e+02 -2.140311e+03  1.387791e+03  2.562357e+03 0.0 0.0 9.0
 1  1 1 2 103   0 -2.424432e+02  2.140311e+03 -9.208287e+02  2.342570e+03 0.0047 0.0 9.0
#pdf 21 1 4.132222e-01 3.413818e-01 5000.0 8.862820e-03 2.169291e-02
</event>
<event>
4 7 1.0 5000.0 7.905138e-03 7.739137e-02
21 -1 0 0 103 101  0.000000e+00  0.000000e+00  2.468011e+03  2.468011e+03 0.0 0.0 9.0
 1 -1 0 0 101   0  0.000000e+00  0.000000e+00 -2.500745e+03  2.500745e+03 0.0 0.0 9.0
 1  1 1 2 103   0 -2.054766e+03 -4.904057e+02  1.291065e+03  2.475764e+03 0.0047 0.0 9.0
22  1 1 2   0   0  2.054766e+03  4.904057e+02 -1.323800e+03  2.492991e+03 0.0 0.0 9.0
#pdf 21 1 3.796939e-01 3.847300e-01 5000.0 1.352727e-02 1.269991e-02
</event>
<event>
4 7 1.0 5000.0 7.905138e-03 7.739137e-02
21 -1 0 0 103 101  0.000000e+00  0.000000e+00  2.545732e+03  2.545732e+03 0.0 0.0 9.0
 1 -1 0 0 101   0  0.000000e+00  0.000000e+00 -2.452979e+03  2.452979e+03 0.0 0.0 9.0
 1  1 1 2 103   0 -1.317206e+03 -1.844999e+03 -1.005268e+03  2.479842e+03 0.0047 0.0 9.0
22  1 1 2   0   0  1.317206e+03  1.844999e+03  1.098021e+03  2.518870e+03 0.0 0.0 9.0
#pdf 21 1 3.916512e-01 3.773814e-01 5000.0 1.163910e-02 1.392087e-02
</event>
<event>
4 7 1.0 5000.0 7.905138e-03 7.739137e-02
21 -1 0 0 103 101  0.000000e+00  0.000000e+00  2.263167e+03  2.263167e+03 0.0 0.0 9.0
 1 -1 0 0 101   0  0.000000e+00  0.000000e+00 -2.669290e+03  2.669290e+03 0.0 0.0 9.0
22  1 1 2   0   0 -2.274492e+03 -3.752126e+02  6.524585e+02  2.395788e+03 0.0 0.0 9.0
 1  1 1 2 103   0  2.274492e+03  3.752126e+02 -1.058581e+03  2.536669e+03 0.0047 0.0 9.0
#pdf 21 1 3.481796e-01 4.106600e-01 5000.0 1.996167e-02 9.156514e-03
</event>
<event>
4 7 1.0 5000.0 7.905138e-03 7.739137e-02
21 -1 0 0 103 101  0.000000e+00  0.000000e+00  3.613156e+03  3.613156e+03 0.0 0.0 9.0
 1 -1 0 0 101   0  0.000000e+00  0.000000e+00 -1.743186e+03  1.743186e+03 0.0 0.0 9.0
22  1 1 2   0   0 -1.843543e+03  1.397223e+03 -1.037796e+02  2.315525e+03 0.0 0.0 9.0
 1  1 1 2 103   0  1.843543e+03 -1.397223e+03  1.973749e+03  3.040817e+03 0.0047 0.0 9.0
#pdf 21 1 5.558701e-01 2.681825e-01 5000.0 1.268176e-03 5.322314e-02
</event>
<event>
4 7 1.0 5000.0 7.905138e-03 7.739137e-02
 1 -1 0 0 101   0  0.000000e+00  0.000000e+00  1.501662e+03  1.501662e+03 0.0 0.0 9.0
21 -1 0 0 103 101  0.000000e+00  0.000000e+00 -4.021876e+03  4.021876e+03 0.0 0.0 9.0
22  1 1 2   0   0 -1.191049e+03 -1.025070e+03 -3.383493e+03  3.730602e+03 0.0 0.0 9.0
 1  1 1 2 103   0  1.191049e+03  1.025070e+03  8.632790e+02  1.792935e+03 0.0047 0.0 9.0
#pdf 1 21 2.310249e-01 6.187501e-01 5000.0 1.442640e-01 3.647068e-03
</event>
<event>
4 7 1.0 5000.0 7.905138e-03 7.739137e-02
 1 -1 0 0 101   0  0.000000e+00  0.000000e+00  2.952810e+03  2.952810e+03 0.0 0.0 9.0
21 -1 0 0 103 101  0.000000e+00  0.000000e+00 -2.275786e+03  2.275786e+03 0.0 0.0 9.0
22  1 1 2   0   0  8.922431e+01 -2.288597e+03 -8.860162e+02  2.455741e+03 0.0 0.0 9.0
 1  1 1 2 103   0 -8.922431e+01  2.288597e+03  1.563040e+03  2.772856e+03 0.0047 0.0 9.0
#pdf 1 21 4.542785e-01 3.501210e-01 5000.0 2.631098e-02 6.438569e-02
</event>
<event>
4 7 1.0 5000.0 7.905138e-03 7.739137e-02
 1 -1 0 0 101   0  0.000000e+00  0.000000e+00  1.827714e+03  1.827714e+03 0.0 0.0 9.0
21 -1 0 0 103 101  0.000000e+00  0.000000e+00 -3.453387e+03  3.453387e+03 0.0 0.0 9.0
22  1 1 2   0   0 -2.366462e+03 -8.814474e+01 -1.694638e+03  2.911994e+03 0.0 0.0 9.0
 1  1 1 2 103   0  2.366462e+03  8.814474e+01  6.896424e+01  2.369107e+03 0.0047 0.0 9.0
#pdf 1 21 2.811867e-01 5.312904e-01 5000.0 1.051420e-01 1.160331e-02
</event>
<event>
4 7 1.0 5000.0 7.905138e-03 7.739137e-02
21 -1 0 0 103 101  0.000000e+00  0.000000e+00  3.406491e+03  3.406491e+03 0.0 0.0 9.0
 1 -1 0 0 101   0  0.000000e+00  0.000000e+00 -2.010251e+03  2.010251e+03 0.0 0.0 9.0
 1  1 1 2 103   0 -1.033786e+03  7.326269e+02 -1.671596e+03  2.097544e+03 0.0047 0.0 9.0
22  1 1 2   0   0  1.033786e+03 -7.326269e+02  3.067836e+03  3.319198e+03 0.0 0.0 9.0
#pdf 21 1 5.240755e-01 3.092694e-01 5000.0 2.012374e-03 3.218474e-02
</event>
<event>
4 7 1.0 5000.0 7.905138e-03 7.739137e-02
21 -1 0 0 103 101  0.000000e+00  0.000000e+00  1.924627e+03  1.924627e+03 0.0 0.0 9.0
 1 -1 0 0 101   0  0.000000e+00  0.000000e+00 -3.238400e+03  3.238400e+03 0.0 0.0 9.0
 1  1 1 2 103   0  1.197830e+03  6.102472e+02  1.518406e+03  2.027993e+03 0.0047 0.0 9.0
22  1 1 2   0   0 -1.197830e+03 -6.102472e+02 -2.832179e+03  3.135034e+03 0.0 0.0 9.0
#pdf 21 1 2.960965e-01 4.982154e-01 5000.0 3.781831e-02 2.888840e-03
</event>
<event>
4 7 1.0 5000.0 7.905138e-03 7.739137e-02
21 -1 0 0 103 101  0.000000e+00  0.000000e+00  1.817178e+03  1.817178e+03 0.0 0.0 9.0
 1 -1 0 0 101   0  0.000000e+00  0.000000e+00 -3.389547e+03  3.389547e+03 0.0 0.0 9.0
22  1 1 2   0   0  5.506950e+02 -9.761995e+02 -3.108943e+03  3.304808e+03 0.0 0.0 9.0
 1  1 1 2 103   0 -5.506950e+02  9.761995e+02  1.536574e+03  1.901917e+03 0.0047 0.0 9.0
#pdf 21 1 2.795658e-01 5.214688e-01 5000.0 4.627162e-02 2.087845e-03
</event>
<event>
4 7 1.0 5000.0 7.905138e-03 7.739137e-02
21 -1 0 0 103 101  0.000000e+00  0.000000e+00  2.319447e+03  2.319447e+03 0.0 0.0 9.0
 1 -1 0 0 101   0  0.000000e+00  0.000000e+00 -2.602878e+03  2.602878e+03 0.0 0.0 9.0
 1  1 1 2 103   0 -9.846208e+02 -2.104068e+03 -9.434563e+02  2.507327e+03 0.0047 0.0 9.0
22  1 1 2   0   0  9.846208e+02  2.104068e+03  6.600258e+02  2.414998e+03 0.0 0.0 9.0
#pdf 21 1 3.568380e-01 4.004427e-01 5000.0 1.793123e-02 1.042158e-02
</event>
<event>
4 7 1.0 5000.0 7.905138e-03 7.739137e-02
21 -1 0 0 103 101  0.000000e+00  0.000000e+00  2.241600e+03  2.241600e+03 0.0 0.0 9.0
 1 -1 0 0 101   0  0.000000e+00  0.000000e+00 -2.789385e+03  2.789385e+03 0.0 0.0 9.0
 1  1 1 2 103   0 -2.215747e+03 -1.029130e+03  2.622524e+02  2.457116e+03 0.0047 0.0 9.0
22  1 1 2   0   0  2.215747e+03  1.029130e+03 -8.100380e+02  2.573869e+03 0.0 0.0 9.0
#pdf 21 1 3.448615e-01 4.291362e-01 5000.0 2.078950e-02 7.230619e-03
</event>
<event>
4 7 1.0 5000.0 7.905138e-03 7.739137e-02
 1 -1 0 0 101   0  0.000000e+00  0.000000e+00  3.229094e+03  3.229094e+03 0.0 0.0 9.0
21 -1 0 0 103 101  0.000000e+00  0.000000e+00 -1.800837e+03  1.800837e+03 0.0 0.0 9.0
22  1 1 2   0   0 -1.064772e+03 -6.925094e+02 -1.423687e+03  1.907929e+03 0.0 0.0 9.0
 1  1 1 2 103   0  1.064772e+03  6.925094e+02  2.851944e+03  3.122001e+03 0.0047 0.0 9.0
#pdf 1 21 4.967836e-01 2.770519e-01 5000.0 1.706977e-02 1.080482e-01
</event>
<event>
4 7 1.0 5000.0 7.905138e-03 7.739137e-02
 1 -1 0 0 101   0  0.000000e+00  0.000000e+00  2.465662e+03  2.465662e+03 0.0 0.0 9.0
21 -1 0 0 103 101  0.000000e+00  0.000000e+00 -2.635591e+03  2.635591e+03 0.0 0.0 9.0
 1  1 1 2 103   0 -6.514574e+02 -3.202407e+02  2.360063e+03  2.469179e+03 0.0047 0.0 9.0
22  1 1 2   0   0  6.514574e+02  3.202407e+02 -2.529992e+03  2.632074e+03 0.0 0.0 9.0
#pdf 1 21 3.793326e-01 4.054756e-01 5000.0 5.115091e-02 4.108185e-02
</event>
<event>
4 7 1.0 5000.0 7.905138e-03 7.739137e-02
 1 -1 0 0 101   0  0.000000e+00  0.000000e+00  3.323790e+03  3.323790e+03 0.0 0.0 9.0
21 -1 0 0 103 101  0.000000e+00  0.000000e+00 -1.853694e+03  1.853694e+03 0.0 0.0 9.0
 1  1 1 2 103   0 -1.145961e+03  1.103224e+03 -1.252252e+03  2.024467e+03 0.0047 0.0 9.0
22  1 1 2   0   0  1.145961e+03 -1.103224e+03  2.722349e+03  3.153017e+03 0.0 0.0 9.0
#pdf 1 21 5.113523e-01 2.851836e-01 5000.0 1.456126e-02 1.023885e-01
</event>
<event>
4 7 1.0 5000.0 7.905138e-03 7.739137e-02
21 -1 0 0 103 101  0.000000e+00  0.000000e+00  4.665591e+03  4.665591e+03 0.0 0.0 9.0
 1 -1 0 0 101   0  0.000000e+00  0.000000e+00 -1.260589e+03  1.260589e+03 0.0 0.0 9.0
 1  1 1 2 103   0  1.456931e+03 -1.331987e+03 -1.871845e+01  1.974129e+03 0.0047 0.0 9.0
22  1 1 2   0   0 -1.456931e+03  1.331987e+03  3.423721e+03  3.952050e+03 0.0 0.0 9.0
#pdf 21 1 7.177832e-01 1.939367e-01 5000.0 7.513329e-05 1.361438e-01
</event>
<event>
4 7 1.0 5000.0 7.905138e-03 7.739137e-02
 1 -1 0 0 101   0  0.000000e+00  0.000000e+00  2.792213e+03  2.792213e+03 0.0 0.0 9.0
21 -1 0 0 103 101  0.000000e+00  0.000000e+00 -2.210105e+03  2.210105e+03 0.0 0.0 9.0
22  1 1 2   0   0  4.039424e+02  3.518045e+02 -2.151265e+03  2.216953e+03 0.0 0.0 9.0
 1  1 1 2 103   0 -4.039424e+02 -3.518045e+02  2.733373e+03  2.785366e+03 0.0047 0.0 9.0
#pdf 1 21 4.295713e-01 3.400162e-01 5000.0 3.317364e-02 6.949389e-02
</event>
<event>
4 7 1.0 5000.0 7.905138e-03 7.739137e-02
21 -1 0 0 103 101  0.000000e+00  0.000000e+00  2.665613e+03  2.665613e+03 0.0 0.0 9.0
 1 -1 0 0 101   0  0.000000e+00  0.000000e+00 -2.285414e+03  2.285414e+03 0.0 0.0 9.0
 1  1 1 2 103   0  2.367965e+03  7.611272e+01  8.842309e+02  2.528817e+03 0.0047 0.0 9.0
22  1 1 2   0   0 -2.367965e+03 -7.611272e+01 -5.040322e+02  2.422210e+03 0.0 0.0 9.0
#pdf 21 1 4.100943e-01 3.516022e-01 5000.0 9.222701e-03 1.913723e-02
</event>
<event>
4 7 1.0 5000.0 7.905138e-03 7.739137e-02
 1 -1 0 0 101   0  0.000000e+00  0.000000e+00  3.121843e+03  3.121843e+03 0.0 0.0 9.0
21 -1 0 0 103 101  0.000000e+00  0.000000e+00 -1.950437e+03  1.950437e+03 0.0 0.0 9.0
22  1 1 2   0   0 -2.336955e+02  1.737660e+03  2.370287e+03  2.948277e+03 0.0 0.0 9.0
 1  1 1 2 103   0  2.336955e+02 -1.737660e+03 -1.198880e+03  2.124003e+03 0.0047 0.0 9.0
#pdf 1 21 4.802836e-01 3.000672e-01 5000.0 2.029766e-02 9.255826e-02
</event>
<event>
4 7 1.0 5000.0 7.905138e-03 7.739137e-02
21 -1 0 0 103 101  0.000000e+00  0.000000e+00  2.038758e+03  2.038758e+03 0.0 0.0 9.0
 1 -1 0 0 101   0  0.000000e+00  0.000000e+00 -3.061457e+03  3.061457e+03 0.0 0.0 9.0
 1  1 1 2 103   0  5.644600e+02 -1.354013e+03 -2.575551e+03  2.964023e+03 0.0047 0.0 9.0
22  1 1 2   0   0 -5.644600e+02  1.354013e+03  1.552853e+03  2.136192e+03 0.0 0.0 9.0
#pdf 21 1 3.136551e-01 4.709933e-01 5000.0 3.048476e-02 4.179049e-03
</event>
<event>
4 7 1.0 5000.0 7.905138e-03 7.739137e-02
 1 -1 0 0 101   0  0.000000e+00  0.000000e+00  3.052329e+03  3.052329e+03 0.0 0.0 9.0
21 -1 0 0 103 101  0.000000e+00  0.000000e+00 -2.064867e+03  2.064867e+03 0.0 0.0 9.0
22  1 1 2   0   0 -2.037522e+02  7.082584e+02 -1.952138e+03  2.086621e+03 0.0 0.0 9.0
 1  1 1 2 103   0  2.037522e+02 -7.082584e+02  2.939599e+03  3.030575e+03 0.0047 0.0 9.0
#pdf 1 21 4.695890e-01 3.176719e-01 5000.0 2.262865e-02 8.181545e-02
</event>
<event>
4 7 1.0 5000.0 7.905138e-03 7.739137e-02
 1 -1 0 0 101   0  0.000000e+00  0.000000e+00  2.119075e+03  2.119075e+03 0.0 0.0 9.0
21 -1 0 0 103 101  0.000000e+00  0.000000e+00 -2.880141e+03  2.880141e+03 0.0 0.0 9.0
 1  1 1 2 103   0  3.535300e+02  2.233595e+03 -1.386901e+03  2.652814e+03 0.0047 0.0 9.0
22  1 1 2   0   0 -3.535300e+02 -2.233595e+03  6.258355e+02  2.346401e+03 0.0 0.0 9.0
#pdf 1 21 3.260115e-01 4.430986e-01 5000.0 7.704878e-02 2.927189e-02
</event>
<event>
4 7 1.0 5000.0 7.905138e-03 7.739137e-02
21 -1 0 0 103 101  0.000000e+00  0.000000e+00  1.632158e+03  1.632158e+03 0.0 0.0 9.0
 1 -1 0 0 101   0  0.000000e+00  0.000000e+00 -3.809414e+03  3.809414e+03 0.0 0.0 9.0
 1  1 1 2 103   0  4.245529e+02  1.532852e+03 -3.184000e+03  3.559176e+03 0.0047 0.0 9.0
22  1 1 2   0   0 -4.245529e+02 -1.532852e+03  1.006745e+03  1.882396e+03 0.0 0.0 9.0
#pdf 21 1 2.511013e-01 5.860637e-01 5000.0 6.583621e-02 8.000108e-04
</event>
<event>
4 7 1.0 5000.0 7.905138e-03 7.739137e-02
 1 -1 0 0 101   0  0.000000e+00  0.000000e+00  2.605373e+03  2.605373e+03 0.0 0.0 9.0
21 -1 0 0 103 101  0.000000e+00  0.000000e+00 -2.403197e+03  2.403197e+03 0.0 0.0 9.0
 1  1 1 2 103   0 -5.607095e+02 -7.906564e+02  2.409849e+03  2.597481e+03 0.0047 0.0 9.0
22  1 1 2   0   0  5.607095e+02  7.906564e+02 -2.207673e+03  2.411089e+03 0.0 0.0 9.0
#pdf 1 21 4.008267e-01 3.697226e-01 5000.0 4.275586e-02 5.524568e-02
</event>
<event>
4 7 1.0 5000.0 7.905138e-03 7.739137e-02
 1 -1 0 0 101   0  0.000000e+00  0.000000e+00  3.187701e+03  3.187701e+03 0.0 0.0 9.0
21 -1 0 0 103 101  0.000000e+00  0.000000e+00 -1.859810e+03  1.859810e+03 0.0 0.0 9.0
22  1 1 2   0   0  1.481528e+03  1.899693e+03  1.030052e+03  2.620070e+03 0.0 0.0 9.0
 1  1 1 2 103   0 -1.481528e+03 -1.899693e+03  2.978390e+02  2.427440e+03 0.0047 0.0 9.0
#pdf 1 21 4.904155e-01 2.861246e-01 5000.0 1.826489e-02 1.017479e-01
</event>
<event>
4 7 1.0 5000.0 7.905138e-03 7.739137e-02
 1 -1 0 0 101   0  0.000000e+00  0.000000e+00  2.806709e+03  2.806709e+03 0.0 0.0 9.0
21 -1 0 0 103 101  0.000000e+00  0.000000e+00 -2.225525e+03  2.225525e+03 0.0 0.0 9.0
22  1 1 2   0   0  1.776643e+03  1.162555e+03  1.617959e+03  2.669417e+03 0.0 0.0 9.0
 1  1 1 2 103   0 -1.776643e+03 -1.162555e+03 -1.036775e+03  2.362816e+03 0.0047 0.0 9.0
#pdf 1 21 4.318014e-01 3.423884e-01 5000.0 3.250705e-02 6.827016e-02
</event>
<event>
4 7 1.0 5000.0 7.905138e-03 7.739137e-02
 1 -1 0 0 101   0  0.000000e+00  0.000000e+00  4.915932e+03  4.915932e+03 0.0 0.0 9.0
21 -1 0 0 103 101  0.000000e+00  0.000000e+00 -9.833186e+02  9.833186e+02 0.0 0.0 9.0
22  1 1 2   0   0  2.192114e+03  1.690099e+02  1.965603e+03  2.949156e+03 0.0 0.0 9.0
 1  1 1 2 103   0 -2.192114e+03 -1.690099e+02  1.967010e+03  2.950094e+03 0.0047 0.0 9.0
#pdf 1 21 7.562972e-01 1.512798e-01 5000.0 2.623178e-04 2.256325e-01
</event>
<event>
4 7 1.0 5000.0 7.905138e-03 7.739137e-02
21 -1 0 0 103 101  0.000000e+00  0.000000e+00  2.834545e+03  2.834545e+03 0.0 0.0 9.0
 1 -1 0 0 101   0  0.000000e+00  0.000000e+00 -2.207686e+03  2.207686e+03 0.0 0.0 9.0
22  1 1 2   0   0 -1.346544e+03  1.161473e+03  2.086613e+03  2.741561e+03 0.0 0.0 9.0
 1  1 1 2 103   0  1.346544e+03 -1.161473e+03 -1.459755e+03  2.300670e+03 0.0047 0.0 9.0
#pdf 21 1 4.360838e-01 3.396441e-01 5000.0 6.616248e-03 2.215930e-02
</event>
<event>
4 7 1.0 5000.0 7.905138e-03 7.739137e-02
 1 -1 0 0 101   0  0.000000e+00  0.000000e+00  1.549741e+03  1.549741e+03 0.0 0.0 9.0
21 -1 0 0 103 101  0.000000e+00  0.000000e+00 -3.614153e+03  3.614153e+03 0.0 0.0 9.0
22  1 1 2   0   0  1.649174e+03 -3.902447e+02  7.700286e+02  1.861453e+03 0.0 0.0 9.0
 1  1 1 2 103   0 -1.649174e+03  3.902447e+02 -2.834440e+03  3.302441e+03 0.0047 0.0 9.0
#pdf 1 21 2.384218e-01 5.560236e-01 5000.0 1.379513e-01 8.603780e-03
</event>
<event>
4 7 1.0 5000.0 7.905138e-03 7.739137e-02
 1 -1 0 0 101   0  0.000000e+00  0.000000e+00  1.619990e+03  1.619990e+03 0.0 0.0 9.0
21 -1 0 0 103 101  0.000000e+00  0.000000e+00 -3.642891e+03  3.642891e+03 0.0 0.0 9.0
 1  1 1 2 103   0  3.573755e+02 -9.063966e+02  1.399078e+03  1.704902e+03 0.0047 0.0 9.0
22  1 1 2   0   0 -3.573755e+02  9.063966e+02 -3.421979e+03  3.557979e+03 0.0 0.0 9.0
#pdf 1 21 2.492292e-01 5.604448e-01 5000.0 1.290772e-01 8.141589e-03
</event>
<event>
4 7 1.0 5000.0 7.905138e-03 7.739137e-02
21 -1 0 0 103 101  0.000000e+00  0.000000e+00  2.341406e+03  2.341406e+03 0.0 0.0 9.0
 1 -1 0 0 101   0  0.000000e+00  0.000000e+00 -2.635326e+03  2.635326e+03 0.0 0.0 9.0
 1  1 1 2 103   0  1.221418e+03 -1.388533e+03  1.514398e+03  2.390248e+03 0.0047 0.0 9.0
22  1 1 2   0   0 -1.221418e+03  1.388533e+03 -1.808318e+03  2.586484e+03 0.0 0.0 9.0
#pdf 21 1 3.602163e-01 4.054348e-01 5000.0 1.720288e-02 9.785478e-03
</event>
<event>
4 7 1.0 5000.0 7.905138e-03 7.739137e-02
 1 -1 0 0 101   0  0.000000e+00  0.000000e+00  2.980467e+03  2.980467e+03 0.0 0.0 9.0
21 -1 0 0 103 101  0.000000e+00  0.000000e+00 -2.088627e+03  2.088627e+03 0.0 0.0 9.0
 1  1 1 2 103   0  1.013113e+03 -1.202704e+03 -1.521831e+03  2.188347e+03 0.0047 0.0 9.0
22  1 1 2   0   0 -1.013113e+03  1.202704e+03  2.413672e+03  2.880747e+03 0.0 0.0 9.0
#pdf 1 21 4.585335e-01 3.213272e-01 5000.0 2.524126e-02 7.970233e-02
</event>
<event>
4 7 1.0 5000.0 7.905138e-03 7.739137e-02
 1 -1 0 0 101   0  0.000000e+00  0.000000e+00  3.299687e+03  3.299687e+03 0.0 0.0 9.0
21 -1 0 0 103 101  0.000000e+00  0.000000e+00 -2.079995e+03  2.079995e+03 0.0 0.0 9.0
22  1 1 2   0   0 -1.000232e+03 -1.203831e+03  2.766888e+03  3.178890e+03 0.0 0.0 9.0
 1  1 1 2 103   0  1.000232e+03  1.203831e+03 -1.547196e+03  2.200793e+03 0.0047 0.0 9.0
#pdf 1 21 5.076442e-01 3.199993e-01 5000.0 1.517051e-02 8.046577e-02
</event>
<event>
4 7 1.0 5000.0 7.905138e-03 7.739137e-02
21 -1 0 0 103 101  0.000000e+00  0.000000e+00  2.708553e+03  2.708553e+03 0.0 0.0 9.0
 1 -1 0 0 101   0  0.000000e+00  0.000000e+00 -2.261456e+03  2.261456e+03 0.0 0.0 9.0
 1  1 1 2 103   0  3.591575e+02 -2.174898e+03 -9.062430e+02  2.383369e+03 0.0047 0.0 9.0
22  1 1 2   0   0 -3.591575e+02  2.174898e+03  1.353340e+03  2.586639e+03 0.0 0.0 9.0
#pdf 21 1 4.167004e-01 3.479163e-01 5000.0 8.479280e-03 2.002628e-02
</event>
<event>
4 7 1.0 5000.0 7.905138e-03 7.739137e-02
 1 -1 0 0 101   0  0.000000e+00  0.000000e+00  2.024361e+03  2.024361e+03 0.0 0.0 9.0
21 -1 0 0 103 101  0.000000e+00  0.000000e+00 -3.056322e+03  3.056322e+03 0.0 0.0 9.0
 1  1 1 2 103   0 -1.365517e+03 -6.394767e+02 -2.536361e+03  2.950711e+03 0.0047 0.0 9.0
22  1 1 2   0   0  1.365517e+03  6.394767e+02  1.504399e+03  2.129973e+03 0.0 0.0 9.0
#pdf 1 21 3.114401e-01 4.702035e-01 5000.0 8.551637e-02 2.248963e-02
</event>
<event>
4 7 1.0 5000.0 7.905138e-03 7.739137e-02
21 -1 0 0 103 101  0.000000e+00  0.000000e+00  1.717522e+03  1.717522e+03 0.0 0.0 9.0
 1 -1 0 0 101   0  0.000000e+00  0.000000e+00 -3.648337e+03  3.648337e+03 0.0 0.0 9.0
 1  1 1 2 103   0  6.757217e+02  1.732456e+03  8.306353e+02  2.036654e+03 0.0047 0.0 9.0
22  1 1 2   0   0 -6.757217e+02 -1.732456e+03 -2.761450e+03  3.329205e+03 0.0 0.0 9.0
#pdf 21 1 2.642342e-01 5.612825e-01 5000.0 5.588232e-02 1.170615e-03
</event>
<event>
4 7 1.0 5000.0 7.905138e-03 7.739137e-02
21 -1 0 0 103 101  0.000000e+00  0.000000e+00  4.712517e+03  4.712517e+03 0.0 0.0 9.0
 1 -1 0 0 101   0  0.000000e+00  0.000000e+00 -1.301312e+03  1.301312e+03 0.0 0.0 9.0
22  1 1 2   0   0 -1.224815e+03  1.603941e+03  3.448217e+03  3.995373e+03 0.0 0.0 9.0
 1  1 1 2 103   0  1.224815e+03 -1.603941e+03 -3.701244e+01  2.018457e+03 0.0047 0.0 9.0
#pdf 21 1 7.250026e-01 2.002019e-01 5000.0 6.440860e-05 1.254858e-01
</event>
<event>
4 7 1.0 5000.0 7.905138e-03 7.739137e-02
21 -1 0 0 103 101  0.000000e+00  0.000000e+00  3.287217e+03  3.287217e+03 0.0 0.0 9.0
 1 -1 0 0 101   0  0.000000e+00  0.000000e+00 -1.409271e+03  1.409271e+03 0.0 0.0 9.0
 1  1 1 2 103   0 -3.714533e+02 -2.074538e+03  4.622906e+02  2.157637e+03 0.0047 0.0 9.0
22  1 1 2   0   0  3.714533e+02  2.074538e+03  1.415655e+03  2.538851e+03 0.0 0.0 9.0
#pdf 21 1 5.057257e-01 2.168109e-01 5000.0 2.603428e-03 1.013318e-01
</event>
<event>
4 7 1.0 5000.0 7.905138e-03 7.739137e-02
 1 -1 0 0 101   0  0.000000e+00  0.000000e+00  1.652920e+03  1.652920e+03 0.0 0.0 9.0
21 -1 0 0 103 101  0.000000e+00  0.000000e+00 -3.902588e+03  3.902588e+03 0.0 0.0 9.0
22  1 1 2   0   0  1.118177e+03  1.091390e+03 -3.314718e+03  3.664534e+03 0.0 0.0 9.0
 1  1 1 2 103   0 -1.118177e+03 -1.091390e+03  1.065050e+03  1.890974e+03 0.0047 0.0 9.0
#pdf 1 21 2.542953e-01 6.003982e-01 5000.0 1.250540e-01 4.764405e-03
</event>
<event>
4 7 1.0 5000.0 7.905138e-03 7.739137e-02
 1 -1 0 0 101   0  0.000000e+00  0.000000e+00  4.192764e+03  4.192764e+03 0.0 0.0 9.0
21 -1 0 0 103 101  0.000000e+00  0.000000e+00 -1.570258e+03  1.570258e+03 0.0 0.0 9.0
22  1 1 2   0   0  6.804564e+02  2.382110e+03  2.061450e+03  3.222894e+03 0.0 0.0 9.0
 1  1 1 2 103   0 -6.804564e+02 -2.382110e+03  5.610563e+02  2.540128e+03 0.0047 0.0 9.0
#pdf 1 21 6.450406e-01 2.415782e-01 5000.0 2.418575e-03 1.353160e-01
</event>
<event>
4 7 1.0 5000.0 7.905138e-03 7.739137e-02
21 -1 0 0 103 101  0.000000e+00  0.000000e+00  1.556442e+03  1.556442e+03 0.0 0.0 9.0
 1 -1 0 0 101   0  0.000000e+00  0.000000e+00 -4.005609e+03  4.005609e+03 0.0 0.0 9.0
 1  1 1 2 103   0 -1.569871e+03  1.883936e+03 -1.747932e+03  3.011474e+03 0.0047 0.0 9.0
22  1 1 2   0   0  1.569871e+03 -1.883936e+03 -7.012353e+02  2.550576e+03 0.0 0.0 9.0
#pdf 21 1 2.394526e-01 6.162475e-01 5000.0 7.613697e-02 4.930168e-04
</event>
<event>
4 7 1.0 5000.0 7.905138e-03 7.739137e-02
 1 -1 0 0 101   0  0.000000e+00  0.000000e+00  2.363573e+03  2.363573e+03 0.0 0.0 9.0
21 -1 0 0 103 101  0.000000e+00  0.000000e+00 -2.682304e+03  2.682304e+03 0.0 0.0 9.0
 1  1 1 2 103   0  8.274561e+02 -1.893791e+03 -1.600538e+03  2.613973e+03 0.0047 0.0 9.0
22  1 1 2   0   0 -8.274561e+02  1.893791e+03  1.281807e+03  2.431905e+03 0.0 0.0 9.0
#pdf 1 21 3.636266e-01 4.126622e-01 5000.0 5.798655e-02 3.859080e-02
</event>
<event>
4 7 1.0 5000.0 7.905138e-03 7.739137e-02
 1 -1 0 0 101   0  0.000000e+00  0.000000e+00  2.565578e+03  2.565578e+03 0.0 0.0 9.0
21 -1 0 0 103 101  0.000000e+00  0.000000e+00 -2.402072e+03  2.402072e+03 0.0 0.0 9.0
22  1 1 2   0   0 -6.373254e+02 -7.732968e+02  2.354224e+03  2.558622e+03 0.0 0.0 9.0
 1  1 1 2 103   0  6.373254e+02  7.732968e+02 -2.190719e+03  2.409029e+03 0.0047 0.0 9.0
#pdf 1 21 3.947043e-01 3.695496e-01 5000.0 4.503563e-02 5.532209e-02
</event>
<event>
4 7 1.0 5000.0 7.905138e-03 7.739137e-02
 1 -1 0 0 101   0  0.000000e+00  0.000000e+00  1.882748e+03  1.882748e+03 0.0 0.0 9.0
21 -1 0 0 103 101  0.000000e+00  0.000000e+00 -3.352954e+03  3.352954e+03 0.0 0.0 9.0
 1  1 1 2 103   0  3.756988e+02  1.017074e+03 -3.096655e+03  3.280984e+03 0.0047 0.0 9.0
22  1 1 2   0   0 -3.756988e+02 -1.017074e+03  1.626448e+03  1.954718e+03 0.0 0.0 9.0
#pdf 1 21 2.896535e-01 5.158391e-01 5000.0 9.937001e-02 1.384906e-02
</event>
<event>
4 7 1.0 5000.0 7.905138e-03 7.739137e-02
 1 -1 0 0 101   0  0.000000e+00  0.000000e+00  2.056311e+03  2.056311e+03 0.0 0.0 9.0
21 -1 0 0 103 101  0.000000e+00  0.000000e+00 -2.983377e+03  2.983377e+03 0.0 0.0 9.0
22  1 1 2   0   0 -2.329987e+03  4.218782e+02 -1.202734e+03  2.655822e+03 0.0 0.0 9.0
 1  1 1 2 103   0  2.329987e+03 -4.218782e+02  2.756670e+02  2.383866e+03 0.0047 0.0 9.0
#pdf 1 21 3.163555e-01 4.589811e-01 5000.0 8.258642e-02 2.513065e-02
</event>
<event>
4 7 1.0 5000.0 7.905138e-03 7.739137e-02
 1 -1 0 0 101   0  0.000000e+00  0.000000e+00  3.484926e+03  3.484926e+03 0.0 0.0 9.0
21 -1 0 0 103 101  0.000000e+00  0.000000e+00 -1.794801e+03  1.794801e+03 0.0 0.0 9.0
 1  1 1 2 103   0  6.698273e+02 -1.386655e+03  2.925120e+03  3.305723e+03 0.0047 0.0 9.0
22  1 1 2   0   0 -6.698273e+02  1.386655e+03 -1.234994e+03  1.974004e+03 0.0 0.0 9.0
#pdf 1 21 5.361425e-01 2.761232e-01 5000.0 1.095480e-02 1.087088e-01
</event>
<event>
4 7 1.0 5000.0 7.905138e-03 7.739137e-02
 1 -1 0 0 101   0  0.000000e+00  0.000000e+00  2.346414e+03  2.346414e+03 0.0 0.0 9.0
21 -1 0 0 103 101  0.000000e+00  0.000000e+00 -2.615029e+03  2.615029e+03 0.0 0.0 9.0
 1  1 1 2 103   0 -1.704575e+03 -1.671710e+03 -7.953914e+02  2.516513e+03 0.0047 0.0 9.0
22  1 1 2   0   0  1.704575e+03  1.671710e+03  5.267767e+02  2.444930e+03 0.0 0.0 9.0
#pdf 1 21 3.609868e-01 4.023121e-01 5000.0 5.919770e-02 4.221559e-02
</event>
<event>
4 7 1.0 5000.0 7.905138e-03 7.739137e-02
 1 -1 0 0 101   0  0.000000e+00  0.000000e+00  1.981414e+03  1.981414e+03 0.0 0.0 9.0
21 -1 0 0 103 101  0.000000e+00  0.000000e+00 -3.209843e+03  3.209843e+03 0.0 0.0 9.0
22  1 1 2   0   0 -1.003947e+03 -1.878349e+03  7.757902e+02  2.266706e+03 0.0 0.0 9.0
 1  1 1 2 103   0  1.003947e+03  1.878349e+03 -2.004219e+03  2.924551e+03 0.0047 0.0 9.0
#pdf 1 21 3.048329e-01 4.938220e-01 5000.0 8.956774e-02 1.761798e-02
</event>
<event>
4 7 1.0 5000.0 7.905138e-03 7.739137e-02
21 -1 0 0 103 101  0.000000e+00  0.000000e+00  1.850009e+03  1.850009e+03 0.0 0.0 9.0
 1 -1 0 0 101   0  0.000000e+00  0.000000e+00 -3.161315e+03  3.161315e+03 0.0 0.0 9.0
22  1 1 2   0   0  6.804395e+02  1.930990e+03  6.779563e+02  2.156698e+03 0.0 0.0 9.0
 1  1 1 2 103   0 -6.804395e+02 -1.930990e+03 -1.989263e+03  2.854626e+03 0.0047 0.0 9.0
#pdf 21 1 2.846167e-01 4.863562e-01 5000.0 4.348689e-02 3.396381e-03
</event>
<event>
4 7 1.0 5000.0 7.905138e-03 7.739137e-02
21 -1 0 0 103 101  0.000000e+00  0.000000e+00  2.389405e+03  2.389405e+03 0.0 0.0 9.0
 1 -1 0 0 101   0  0.000000e+00  0.000000e+00 -2.592739e+03  2.592739e+03 0.0 0.0 9.0
22  1 1 2   0   0  2.481836e+03  1.007780e+02  5.796468e+01  2.484557e+03 0.0 0.0 9.0
 1  1 1 2 103   0 -2.481836e+03 -1.007780e+02 -2.612983e+02  2.497587e+03 0.0047 0.0 9.0
#pdf 21 1 3.676008e-01 3.988829e-01 5000.0 1.570105e-02 1.062803e-02
</event>
<event>
4 7 1.0 5000.0 7.905138e-03 7.739137e-02
21 -1 0 0 103 101  0.000000e+00  0.000000e+00  2.796534e+03  2.796534e+03 0.0 0.0 9.0
 1 -1 0 0 101   0  0.000000e+00  0.000000e+00 -2.234763e+03  2.234763e+03 0.0 0.0 9.0
 1  1 1 2 103   0 -1.197907e+03 -1.799136e+03  1.544862e+03  2.656778e+03 0.0047 0.0 9.0
22  1 1 2   0   0  1.197907e+03  1.799136e+03 -9.830916e+02  2.374519e+03 0.0 0.0 9.0
#pdf 21 1 4.302360e-01 3.438097e-01 5000.0 7.129458e-03 2.105851e-02
</event>
<event>
4 7 1.0 5000.0 7.905138e-03 7.739137e-02
21 -1 0 0 103 101  0.000000e+00  0.000000e+00  2.340930e+03  2.340930e+03 0.0 0.0 9.0
 1 -1 0 0 101   0  0.000000e+00  0.000000e+00 -2.661403e+03  2.661403e+03 0.0 0.0 9.0
 1  1 1 2 103   0  9.691782e+02  2.256455e+03 -6.075459e+02  2.529823e+03 0.0047 0.0 9.0
22  1 1 2   0   0 -9.691782e+02 -2.256455e+03  2.870731e+02  2.472510e+03 0.0 0.0 9.0
#pdf 21 1 3.601431e-01 4.094466e-01 5000.0 1.721830e-02 9.299105e-03
</event>
<event>
4 7 1.0 5000.0 7.905138e-03 7.739137e-02
 1 -1 0 0 101   0  0.000000e+00  0.000000e+00  3.231381e+03  3.231381e+03 0.0 0.0 9.0
21 -1 0 0 103 101  0.000000e+00  0.000000e+00 -1.930079e+03  1.930079e+03 0.0 0.0 9.0
22  1 1 2   0   0 -2.093759e+02  1.756867e+03  2.471985e+03  3.039923e+03 0.0 0.0 9.0
 1  1 1 2 103   0  2.093759e+02 -1.756867e+03 -1.170683e+03  2.121537e+03 0.0047 0.0 9.0
#pdf 1 21 4.971356e-01 2.969352e-01 5000.0 1.700549e-02 9.457683e-02
</event>
<event>
4 7 1.0 5000.0 7.905138e-03 7.739137e-02
21 -1 0 0 103 101  0.000000e+00  0.000000e+00  2.591567e+03  2.591567e+03 0.0 0.0 9.0
 1 -1 0 0 101   0  0.000000e+00  0.000000e+00 -2.510898e+03  2.510898e+03 0.0 0.0 9.0
 1  1 1 2 103   0  1.931191e+03  7.312669e+00 -1.626490e+03  2.524881e+03 0.0047 0.0 9.0
22  1 1 2   0   0 -1.931191e+03 -7.312669e+00  1.707159e+03  2.577585e+03 0.0 0.0 9.0
#pdf 21 1 3.987026e-01 3.862921e-01 5000.0 1.065215e-02 1.245235e-02
</event>
<event>
4 7 1.0 5000.0 7.905138e-03 7.739137e-02
21 -1 0 0 103 101  0.000000e+00  0.000000e+00  3.806479e+03  3.806479e+03 0.0 0.0 9.0
 1 -1 0 0 101   0  0.000000e+00  0.000000e+00 -1.617548e+03  1.617548e+03 0.0 0.0 9.0
22  1 1 2   0   0 -2.222275e+02 -2.304291e+03  1.181101e+02  2.317993e+03 0.0 0.0 9.0
 1  1 1 2 103   0  2.222275e+02  2.304291e+03  2.070821e+03  3.106034e+03 0.0047 0.0 9.0
#pdf 21 1 5.856122e-01 2.488535e-01 5000.0 8.056595e-04 6.768176e-02
</event>
<event>
4 7 1.0 5000.0 7.905138e-03 7.739137e-02
21 -1 0 0 103 101  0.000000e+00  0.000000e+00  2.555785e+03  2.555785e+03 0.0 0.0 9.0
 1 -1 0 0 101   0  0.000000e+00  0.000000e+00 -2.455833e+03  2.455833e+03 0.0 0.0 9.0
22  1 1 2   0   0 -4.054771e+02  3.211230e+02  2.501800e+03  2.554708e+03 0.0 0.0 9.0
 1  1 1 2 103   0  4.054771e+02 -3.211230e+02 -2.401848e+03  2.456909e+03 0.0047 0.0 9.0
#pdf 21 1 3.931977e-01 3.778204e-01 5000.0 1.141497e-02 1.384554e-02
</event>
<event>
4 7 1.0 5000.0 7.905138e-03 7.739137e-02
21 -1 0 0 103 101  0.000000e+00  0.000000e+00  2.116501e+03  2.116501e+03 0.0 0.0 9.0
 1 -1 0 0 101   0  0.000000e+00  0.000000e+00 -2.951590e+03  2.951590e+03 0.0 0.0 9.0
 1  1 1 2 103   0 -2.397504e+03  3.389092e+02 -1.045938e+03  2.637588e+03 0.0047 0.0 9.0
22  1 1 2   0   0  2.397504e+03 -3.389092e+02  2.108498e+02  2.430503e+03 0.0 0.0 9.0
#pdf 21 1 3.256156e-01 4.540907e-01 5000.0 2.632078e-02 5.230630e-03
</event>
<event>
4 7 1.0 5000.0 7.905138e-03 7.739137e-02
21 -1 0 0 103 101  0.000000e+00  0.000000e+00  4.644155e+03  4.644155e+03 0.0 0.0 9.0
 1 -1 0 0 101   0  0.000000e+00  0.000000e+00 -1.279372e+03  1.279372e+03 0.0 0.0 9.0
 1  1 1 2 103   0  1.546832e+03 -1.869310e+03  1.398492e+03  2.800498e+03 0.0047 0.0 9.0
22  1 1 2   0   0 -1.546832e+03  1.869310e+03  1.966290e+03  3.123029e+03 0.0 0.0 9.0
#pdf 21 1 7.144853e-01 1.968265e-01 5000.0 8.054533e-05 1.311094e-01
</event>
<event>
4 7 1.0 5000.0 7.905138e-03 7.739137e-02
 1 -1 0 0 101   0  0.000000e+00  0.000000e+00  3.178790e+03  3.178790e+03 0.0 0.0 9.0
21 -1 0 0 103 101  0.000000e+00  0.000000e+00 -1.935701e+03  1.935701e+03 0.0 0.0 9.0
 1  1 1 2 103   0  1.903163e+03  1.136513e+03  1.769287e+03  2.836207e+03 0.0047 0.0 9.0
22  1 1 2   0   0 -1.903163e+03 -1.136513e+03 -5.261977e+02  2.278284e+03 0.0 0.0 9.0
#pdf 1 21 4.890446e-01 2.978001e-01 5000.0 1.853027e-02 9.401689e-02
</event>
<event>
4 7 1.0 5000.0 7.905138e-03 7.739137e-02
 1 -1 0 0 101   0  0.000000e+00  0.000000e+00  2.215502e+03  2.215502e+03 0.0 0.0 9.0
21 -1 0 0 103 101  0.000000e+00  0.000000e+00 -1.963899e+03  1.963899e+03 0.0 0.0 9.0
22  1 1 2   0   0 -1.614496e+03 -1.259503e+03  5.241143e+02  2.113679e+03 0.0 0.0 9.0
 1  1 1 2 103   0  1.614496e+03  1.259503e+03 -2.725122e+02  2.065722e+03 0.0047 0.0 9.0
#pdf 1 21 3.408464e-01 3.021384e-01 5000.0 6.906387e-02 9.125132e-02
</event>
<event>
4 7 1.0 5000.0 7.905138e-03 7.739137e-02
 1 -1 0 0 101   0  0.000000e+00  0.000000e+00  4.863257e+03  4.863257e+03 0.0 0.0 9.0
21 -1 0 0 103 101  0.000000e+00  0.000000e+00 -1.280569e+03  1.280569e+03 0.0 0.0 9.0
22  1 1 2   0   0 -1.140597e+03  2.154253e+03  1.133079e+03  2.688055e+03 0.0 0.0 9.0
 1  1 1 2 103   0  1.140597e+03 -2.154253e+03  2.449609e+03  3.455771e+03 0.0047 0.0 9.0
#pdf 1 21 7.481934e-01 1.970106e-01 5000.0 3.195534e-04 1.758774e-01
</event>
<event>
4 7 1.0 5000.0 7.905138e-03 7.739137e-02
 1 -1 0 0 101   0  0.000000e+00  0.000000e+00  4.049750e+03  4.049750e+03 0.0 0.0 9.0
21 -1 0 0 103 101  0.000000e+00  0.000000e+00 -1.462554e+03  1.462554e+03 0.0 0.0 9.0
22  1 1 2   0   0 -2.081865e+03  1.229312e+03  9.781068e+02  2.608076e+03 0.0 0.0 9.0
 1  1 1 2 103   0  2.081865e+03 -1.229312e+03  1.609090e+03  2.904228e+03 0.0047 0.0 9.0
#pdf 1 21 6.230385e-01 2.250083e-01 5000.0 3.418794e-03 1.495366e-01
</event>
<event>
4 7 1.0 5000.0 7.905138e-03 7.739137e-02
 1 -1 0 0 101   0  0.000000e+00  0.000000e+00  1.988398e+03  1.988398e+03 0.0 0.0 9.0
21 -1 0 0 103 101  0.000000e+00  0.000000e+00 -3.107296e+03  3.107296e+03 0.0 0.0 9.0
22  1 1 2   0   0 -1.347713e+03 -8.558516e+02 -2.512293e+03  2.976647e+03 0.0 0.0 9.0
 1  1 1 2 103   0  1.347713e+03  8.558516e+02  1.393395e+03  2.119048e+03 0.0047 0.0 9.0
#pdf 1 21 3.059074e-01 4.780456e-01 5000.0 8.890101e-02 2.076968e-02
</event>
<event>
4 7 1.0 5000.0 7.905138e-03 7.739137e-02
21 -1 0 0 103 101  0.000000e+00  0.000000e+00  2.787572e+03  2.787572e+03 0.0 0.0 9.0
 1 -1 0 0 101   0  0.000000e+00  0.000000e+00 -2.190995e+03  2.190995e+03 0.0 0.0 9.0
 1  1 1 2 103   0  1.613124e+03  1.387986e+03 -9.673664e+02  2.337621e+03 0.0047 0.0 9.0
22  1 1 2   0   0 -1.613124e+03 -1.387986e+03  1.563944e+03  2.640945e+03 0.0 0.0 9.0
#pdf 21 1 4.288572e-01 3.370761e-01 5000.0 7.256557e-03 2.286905e-02
</event>
<event>
4 7 1.0 5000.0 7.905138e-03 7.739137e-02
21 -1 0 0 103 101  0.000000e+00  0.000000e+00  2.198566e+03  2.198566e+03 0.0 0.0 9.0
 1 -1 0 0 101   0  0.000000e+00  0.000000e+00 -2.867250e+03  2.867250e+03 0.0 0.0 9.0
 1  1 1 2 103   0  7.456341e+02  2.327227e+03  2.468362e+02  2.456193e+03 0.0047 0.0 9.0
22  1 1 2   0   0 -7.456341e+02 -2.327227e+03 -9.155210e+02  2.609623e+03 0.0 0.0 9.0
#pdf 21 1 3.382409e-01 4.411154e-01 5000.0 2.254397e-02 6.199686e-03
</event>
<event>
4 7 1.0 5000.0 7.905138e-03 7.739137e-02
 1 -1 0 0 101   0  0.000000e+00  0.000000e+00  2.009576e+03  2.009576e+03 0.0 0.0 9.0
21 -1 0 0 103 101  0.000000e+00  0.000000e+00 -2.896318e+03  2.896318e+03 0.0 0.0 9.0
 1  1 1 2 103   0 -1.075820e+03  1.040967e+03 -2.366977e+03  2.800639e+03 0.0047 0.0 9.0
22  1 1 2   0   0  1.075820e+03 -1.040967e+03  1.480236e+03  2.105255e+03 0.0 0.0 9.0
#pdf 1 21 3.091656e-01 4.455874e-01 5000.0 8.689752e-02 2.858302e-02
</event>
<event>
4 7 1.0 5000.0 7.905138e-03 7.739137e-02
 1 -1 0 0 101   0  0.000000e+00  0.000000e+00  1.893624e+03  1.893624e+03 0.0 0.0 9.0
21 -1 0 0 103 101  0.000000e+00  0.000000e+00 -3.278389e+03  3.278389e+03 0.0 0.0 9.0
22  1 1 2   0   0  1.207872e+03 -2.154611e+02 -2.943116e+03  3.188622e+03 0.0 0.0 9.0
 1  1 1 2 103   0 -1.207872e+03  2.154611e+02  1.558351e+03  1.983390e+03 0.0047 0.0 9.0
#pdf 1 21 2.913267e-01 5.043675e-01 5000.0 9.825556e-02 1.572510e-02
</event>
<event>
4 7 1.0 5000.0 7.905138e-03 7.739137e-02
21 -1 0 0 103 101  0.000000e+00  0.000000e+00  3.285324e+03  3.285324e+03 0.0 0.0 9.0
 1 -1 0 0 101   0  0.000000e+00  0.000000e+00 -1.749140e+03  1.749140e+03 0.0 0.0 9.0
22  1 1 2   0   0 -2.204840e+03  4.880479e+02 -7.654063e+01  2.259507e+03 0.0 0.0 9.0
 1  1 1 2 103   0  2.204840e+03 -4.880479e+02  1.612724e+03  2.774958e+03 0.0047 0.0 9.0
#pdf 21 1 5.054345e-01 2.690985e-01 5000.0 2.613955e-03 5.262609e-02
</event>
<event>
4 7 1.0 5000.0 7.905138e-03 7.739137e-02
 1 -1 0 0 101   0  0.000000e+00  0.000000e+00  1.904998e+03  1.904998e+03 0.0 0.0 9.0
21 -1 0 0 103 101  0.000000e+00  0.000000e+00 -3.171786e+03  3.171786e+03 0.0 0.0 9.0
 1  1 1 2 103   0  6.479249e+02 -1.688907e+03 -2.352101e+03  2.967253e+03 0.0047 0.0 9.0
22  1 1 2   0   0 -6.479249e+02  1.688907e+03  1.085313e+03  2.109530e+03 0.0 0.0 9.0
#pdf 1 21 2.930766e-01 4.879671e-01 5000.0 9.709863e-02 1.874094e-02
</event>
<event>
4 7 1.0 5000.0 7.905138e-03 7.739137e-02
21 -1 0 0 103 101  0.000000e+00  0.000000e+00  2.388334e+03  2.388334e+03 0.0 0.0 9.0
 1 -1 0 0 101   0  0.000000e+00  0.000000e+00 -2.715616e+03  2.715616e+03 0.0 0.0 9.0
22  1 1 2   0   0  2.258415e+03 -9.913427e+02 -7.994551e+02  2.592745e+03 0.0 0.0 9.0
 1  1 1 2 103   0 -2.258415e+03  9.913427e+02  4.721738e+02  2.511204e+03 0.0047 0.0 9.0
#pdf 21 1 3.674360e-01 4.177870e-01 5000.0 1.573378e-02 8.362825e-03
</event>
<event>
4 7 1.0 5000.0 7.905138e-03 7.739137e-02
 1 -1 0 0 101   0  0.000000e+00  0.000000e+00  1.719412e+03  1.719412e+03 0.0 0.0 9.0
21 -1 0 0 103 101  0.000000e+00  0.000000e+00 -3.828726e+03  3.828726e+03 0.0 0.0 9.0
 1  1 1 2 103   0  1.652874e+03 -1.939088e+03 -1.380995e+03  2.898137e+03 0.0047 0.0 9.0
22  1 1 2   0   0 -1.652874e+03  1.939088e+03 -7.283190e+02  2.650000e+03 0.0 0.0 9.0
#pdf 1 21 2.645249e-01 5.890348e-01 5000.0 1.171980e-01 5.581317e-03
</event>
<event>
4 7 1.0 5000.0 7.905138e-03 7.739137e-02
 1 -1 0 0 101   0  0.000000e+00  0.000000e+00  1.830231e+03  1.830231e+03 0.0 0.0 9.0
21 -1 0 0 103 101  0.000000e+00  0.000000e+00 -3.581719e+03  3.581719e+03 0.0 0.0 9.0
 1  1 1 2 103   0  9.561939e+02 -2.371988e+03 -1.004064e+03  2.747504e+03 0.0047 0.0 9.0
22  1 1 2   0   0 -9.561939e+02  2.371988e+03 -7.474238e+02  2.664446e+03 0.0 0.0 9.0
#pdf 1 21 2.815740e-01 5.510337e-01 5000.0 1.048728e-01 9.146376e-03
</event>
<event>
4 7 1.0 5000.0 7.905138e-03 7.739137e-02
 1 -1 0 0 101   0  0.000000e+00  0.000000e+00  2.992436e+03  2.992436e+03 0.0 0.0 9.0
21 -1 0 0 103 101  0.000000e+00  0.000000e+00 -2.210024e+03  2.210024e+03 0.0 0.0 9.0
22  1 1 2   0   0  9.580720e+02 -8.317396e+02 -1.871415e+03  2.260948e+03 0.0 0.0 9.0
 1  1 1 2 103   0 -9.580720e+02  8.317396e+02  2.653827e+03  2.941511e+03 0.0047 0.0 9.0
#pdf 1 21 4.603747e-01 3.400037e-01 5000.0 2.478899e-02 6.950039e-02
</event>
<event>
4 7 1.0 5000.0 7.905138e-03 7.739137e-02
21 -1 0 0 103 101  0.000000e+00  0.000000e+00  2.722961e+03  2.722961e+03 0.0 0.0 9.0
 1 -1 0 0 101   0  0.000000e+00  0.000000e+00 -2.316225e+03  2.316225e+03 0.0 0.0 9.0
 1  1 1 2 103   0  1.353468e+02 -2.504282e+03  7.161895e+01  2.508959e+03 0.0047 0.0 9.0
22  1 1 2   0   0 -1.353468e+02  2.504282e+03  3.351170e+02  2.530227e+03 0.0 0.0 9.0
#pdf 21 1 4.189170e-01 3.563423e-01 5000.0 8.243324e-03 1.804135e-02
</event>
<event>
4 7 1.0 5000.0 7.905138e-03 7.739137e-02
 1 -1 0 0 101   0  0.000000e+00  0.000000e+00  1.842316e+03  1.842316e+03 0.0 0.0 9.0
21 -1 0 0 103 101  0.000000e+00  0.000000e+00 -3.355810e+03  3.355810e+03 0.0 0.0 9.0
22  1 1 2   0   0 -2.270480e+03 -3.878059e+02  2.221411e+02  2.314048e+03 0.0 0.0 9.0
 1  1 1 2 103   0  2.270480e+03  3.878059e+02 -1.735635e+03  2.884078e+03 0.0047 0.0 9.0
#pdf 1 21 2.834332e-01 5.162785e-01 5000.0 1.035878e-01 1.378074e-02
</event>
<event>
4 7 1.0 5000.0 7.905138e-03 7.739137e-02
21 -1 0 0 103 101  0.000000e+00  0.000000e+00  2.627717e+03  2.627717e+03 0.0 0.0 9.0
 1 -1 0 0 101   0  0.000000e+00  0.000000e+00 -2.390070e+03  2.390070e+03 0.0 0.0 9.0
 1  1 1 2 103   0  1.691668e+02 -1.055017e+03 -2.150604e+03  2.401412e+03 0.0047 0.0 9.0
22  1 1 2   0   0 -1.691668e+02  1.055017e+03  2.388251e+03  2.616375e+03 0.0 0.0 9.0
#pdf 21 1 4.042641e-01 3.677031e-01 5000.0 9.931440e-03 1.568077e-02
</event>
<event>
4 7 1.0 5000.0 7.905138e-03 7.739137e-02
 1 -1 0 0 101   0  0.000000e+00  0.000000e+00  2.030828e+03  2.030828e+03 0.0 0.0 9.0
21 -1 0 0 103 101  0.000000e+00  0.000000e+00 -2.535298e+03  2.535298e+03 0.0 0.0 9.0
 1  1 1 2 103   0  1.878659e+03  6.042739e+02 -1.379066e+03  2.407556e+03 0.0047 0.0 9.0
22  1 1 2   0   0 -1.878659e+03 -6.042739e+02  8.745958e+02  2.158570e+03 0.0 0.0 9.0
#pdf 1 21 3.124351e-01 3.900459e-01 5000.0 8.491705e-02 4.682728e-02
</event>
<event>
4 7 1.0 5000.0 7.905138e-03 7.739137e-02
21 -1 0 0 103 101  0.000000e+00  0.000000e+00  2.183562e+03  2.183562e+03 0.0 0.0 9.0
 1 -1 0 0 101   0  0.000000e+00  0.000000e+00 -2.408086e+03  2.408086e+03 0.0 0.0 9.0
22  1 1 2   0   0 -6.983704e+02  5.864602e+01 -2.298233e+03  2.402714e+03 0.0 0.0 9.0
 1  1 1 2 103   0  6.983704e+02 -5.864602e+01  2.073710e+03  2.188934e+03 0.0047 0.0 9.0
#pdf 21 1 3.359327e-01 3.704747e-01 5000.0 2.319348e-02 1.514632e-02
</event>
<event>
4 7 1.0 5000.0 7.905138e-03 7.739137e-02
 1 -1 0 0 101   0  0.000000e+00  0.000000e+00  3.612553e+03  3.612553e+03 0.0 0.0 9.0
21 -1 0 0 103 101  0.000000e+00  0.000000e+00 -1.768582e+03  1.768582e+03 0.0 0.0 9.0
 1  1 1 2 103   0  1.699796e+03 -7.956331e+02 -8.802842e+02  2.072978e+03 0.0047 0.0 9.0
22  1 1 2   0   0 -1.699796e+03  7.956331e+02  2.724255e+03  3.308157e+03 0.0 0.0 9.0
#pdf 1 21 5.557774e-01 2.720896e-01 5000.0 8.629870e-03 1.116120e-01
</event>
<event>
4 7 1.0 5000.0 7.905138e-03 7.739137e-02
21 -1 0 0 103 101  0.000000e+00  0.000000e+00  1.839374e+03  1.839374e+03 0.0 0.0 9.0
 1 -1 0 0 101   0  0.000000e+00  0.000000e+00 -3.650566e+03  3.650566e+03 0.0 0.0 9.0
 1  1 1 2 103   0  6.897069e+02 -9.890898e+02  1.524071e+03  1.943396e+03 0.0047 0.0 9.0
22  1 1 2   0   0 -6.897069e+02  9.890898e+02 -3.335264e+03  3.546545e+03 0.0 0.0 9.0
#pdf 21 1 2.829806e-01 5.616256e-01 5000.0 4.436540e-02 1.164594e-03
</event>
<event>
4 7 1.0 5000.0 7.905138e-03 7.739137e-02
21 -1 0 0 103 101  0.000000e+00  0.000000e+00  1.513407e+03  1.513407e+03 0.0 0.0 9.0
 1 -1 0 0 101   0  0.000000e+00  0.000000e+00 -3.481039e+03  3.481039e+03 0.0 0.0 9.0
22  1 1 2   0   0  1.791586e+03  1.216586e+03 -1.563943e+02  2.171249e+03 0.0 0.0 9.0
 1  1 1 2 103   0 -1.791586e+03 -1.216586e+03 -1.811237e+03  2.823197e+03 0.0047 0.0 9.0
#pdf 21 1 2.328319e-01 5.355444e-01 5000.0 8.266628e-02 1.707300e-03
</event>
<event>
4 7 1.0 5000.0 7.905138e-03 7.739137e-02
21 -1 0 0 103 101  0.000000e+00  0.000000e+00  2.950193e+03  2.950193e+03 0.0 0.0 9.0
 1 -1 0 0 101   0  0.000000e+00  0.000000e+00 -1.837381e+03  1.837381e+03 0.0 0.0 9.0
 1  1 1 2 103   0  5.006826e+02 -1.757334e+03  2.039854e+03  2.738596e+03 0.0047 0.0 9.0
22  1 1 2   0   0 -5.006826e+02  1.757334e+03 -9.270411e+02  2.048978e+03 0.0 0.0 9.0
#pdf 21 1 4.538759e-01 2.826739e-01 5000.0 5.245463e-03 4.453272e-02
</event>
<event>
4 7 1.0 5000.0 7.905138e-03 7.739137e-02
 1 -1 0 0 101   0  0.000000e+00  0.000000e+00  2.354538e+03  2.354538e+03 0.0 0.0 9.0
21 -1 0 0 103 101  0.000000e+00  0.000000e+00 -2.626008e+03  2.626008e+03 0.0 0.0 9.0
22  1 1 2   0   0  4.684625e+02 -1.990083e+03 -1.553169e+03  2.567532e+03 0.0 0.0 9.0
 1  1 1 2 103   0 -4.684625e+02  1.990083e+03  1.281699e+03  2.413015e+03 0.0047 0.0 9.0
#pdf 1 21 3.622367e-01 4.040012e-01 5000.0 5.862226e-02 4.160740e-02
</event>
<event>
4 7 1.0 5000.0 7.905138e-03 7.739137e-02
21 -1 0 0 103 101  0.000000e+00  0.000000e+00  2.171523e+03  2.171523e+03 0.0 0.0 9.0
 1 -1 0 0 101   0  0.000000e+00  0.000000e+00 -2.769913e+03  2.769913e+03 0.0 0.0 9.0
22  1 1 2   0   0 -1.964815e+03 -1.392406e+03  1.686190e+02  2.414068e+03 0.0 0.0 9.0
 1  1 1 2 103   0  1.964815e+03  1.392406e+03 -7.670091e+02  2.527369e+03 0.0047 0.0 9.0
#pdf 21 1 3.340805e-01 4.261405e-01 5000.0 2.372836e-02 7.515057e-03
</event>
<event>
4 7 1.0 5000.0 7.905138e-03 7.739137e-02
 1 -1 0 0 101   0  0.000000e+00  0.000000e+00  3.610522e+03  3.610522e+03 0.0 0.0 9.0
21 -1 0 0 103 101  0.000000e+00  0.000000e+00 -1.708159e+03  1.708159e+03 0.0 0.0 9.0
 1  1 1 2 103   0 -2.156602e+03 -9.108765e+02  1.838569e+03  2.976738e+03 0.0047 0.0 9.0
22  1 1 2   0   0  2.156602e+03  9.108765e+02  6.379409e+01  2.341944e+03 0.0 0.0 9.0
#pdf 1 21 5.554650e-01 2.627937e-01 5000.0 8.663042e-03 1.185014e-01
</event>
<event>
4 7 1.0 5000.0 7.905138e-03 7.739137e-02
21 -1 0 0 103 101  0.000000e+00  0.000000e+00  2.605032e+03  2.605032e+03 0.0 0.0 9.0
 1 -1 0 0 101   0  0.000000e+00  0.000000e+00 -2.794221e+03  2.794221e+03 0.0 0.0 9.0
22  1 1 2   0   0  6.510922e+02  9.288926e+02  2.354822e+03  2.613799e+03 0.0 0.0 9.0
 1  1 1 2 103   0 -6.510922e+02 -9.288926e+02 -2.544011e+03  2.785454e+03 0.0047 0.0 9.0
#pdf 21 1 4.007742e-01 4.298802e-01 5000.0 1.037820e-02 7.162003e-03
</event>
<event>
4 7 1.0 5000.0 7.905138e-03 7.739137e-02
 1 -1 0 0 101   0  0.000000e+00  0.000000e+00  2.567542e+03  2.567542e+03 0.0 0.0 9.0
21 -1 0 0 103 101  0.000000e+00  0.000000e+00 -2.483034e+03  2.483034e+03 0.0 0.0 9.0
 1  1 1 2 103   0  1.764439e+03 -7.123910e+02 -1.617662e+03  2.497514e+03 0.0047 0.0 9.0
22  1 1 2   0   0 -1.764439e+03  7.123910e+02  1.702170e+03  2.553062e+03 0.0 0.0 9.0
#pdf 1 21 3.950065e-01 3.820053e-01 5000.0 4.492112e-02 5.004696e-02
</event>
<event>
4 7 1.0 5000.0 7.905138e-03 7.739137e-02
 1 -1 0 0 101   0  0.000000e+00  0.000000e+00  2.297773e+03  2.297773e+03 0.0 0.0 9.0
21 -1 0 0 103 101  0.000000e+00  0.000000e+00 -2.419474e+03  2.419474e+03 0.0 0.0 9.0
22  1 1 2   0   0 -6.676669e+01  5.853258e+02  2.222964e+03  2.299703e+03 0.0 0.0 9.0
 1  1 1 2 103   0  6.676669e+01 -5.853258e+02 -2.344666e+03  2.417544e+03 0.0047 0.0 9.0
#pdf 1 21 3.535035e-01 3.722268e-01 5000.0 6.273450e-02 5.415445e-02
</event>
<event>
4 7 1.0 5000.0 7.905138e-03 7.739137e-02
 1 -1 0 0 101   0  0.000000e+00  0.000000e+00  1.836365e+03  1.836365e+03 0.0 0.0 9.0
21 -1 0 0 103 101  0.000000e+00  0.000000e+00 -3.431966e+03  3.431966e+03 0.0 0.0 9.0
 1  1 1 2 103   0  2.499967e+03 -2.170704e+02 -8.748369e+02  2.657497e+03 0.0047 0.0 9.0
22  1 1 2   0   0 -2.499967e+03  2.170704e+02 -7.207646e+02  2.610834e+03 0.0 0.0 9.0
#pdf 1 21 2.825177e-01 5.279948e-01 5000.0 1.042191e-01 1.205721e-02
</event>
<event>
4 7 1.0 5000.0 7.905138e-03 7.739137e-02
21 -1 0 0 103 101  0.000000e+00  0.000000e+00  2.009312e+03  2.009312e+03 0.0 0.0 9.0
 1 -1 0 0 101   0  0.000000e+00  0.000000e+00 -2.951127e+03  2.951127e+03 0.0 0.0 9.0
22  1 1 2   0   0  2.197475e+03  7.965459e+02 -1.166459e+03  2.612280e+03 0.0 0.0 9.0
 1  1 1 2 103   0 -2.197475e+03 -7.965459e+02  2.246439e+02  2.348158e+03 0.0047 0.0 9.0
#pdf 21 1 3.091249e-01 4.540195e-01 5000.0 3.224211e-02 5.235543e-03
</event>
<event>
4 7 1.0 5000.0 7.905138e-03 7.739137e-02
21 -1 0 0 103 101  0.000000e+00  0.000000e+00  3.218505e+03  3.218505e+03 0.0 0.0 9.0
 1 -1 0 0 101   0  0.000000e+00  0.000000e+00 -1.976351e+03  1.976351e+03 0.0 0.0 9.0
22  1 1 2   0   0 -1.863758e+03  3.909405e+02  2.324100e+03  3.004642e+03 0.0 0.0 9.0
 1  1 1 2 103   0  1.863758e+03 -3.909405e+02 -1.081946e+03  2.190214e+03 0.0047 0.0 9.0
#pdf 21 1 4.951546e-01 3.040539e-01 5000.0 3.013002e-03 3.430271e-02
</event>
<event>
4 7 1.0 5000.0 7.905138e-03 7.739137e-02
 1 -1 0 0 101   0  0.000000e+00  0.000000e+00  3.158441e+03  3.158441e+03 0.0 0.0 9.0
21 -1 0 0 103 101  0.000000e+00  0.000000e+00 -1.938696e+03  1.938696e+03 0.0 0.0 9.0
 1  1 1 2 103   0 -1.171808e+03 -1.623321e+03 -8.879331e+02  2.190144e+03 0.0047 0.0 9.0
22  1 1 2   0   0  1.171808e+03  1.623321e+03  2.107678e+03  2.906993e+03 0.0 0.0 9.0
#pdf 1 21 4.859140e-01 2.982609e-01 5000.0 1.914746e-02 9.371930e-02
</event>
<event>
4 7 1.0 5000.0 7.905138e-03 7.739137e-02
21 -1 0 0 103 101  0.000000e+00  0.000000e+00  3.026867e+03  3.026867e+03 0.0 0.0 9.0
 1 -1 0 0 101   0  0.000000e+00  0.000000e+00 -1.876702e+03  1.876702e+03 0.0 0.0 9.0
22  1 1 2   0   0 -2.055686e+03  9.548398e+02  1.333089e+03  2.629580e+03 0.0 0.0 9.0
 1  1 1 2 103   0  2.055686e+03 -9.548398e+02 -1.829249e+02  2.273989e+03 0.0047 0.0 9.0
#pdf 21 1 4.656718e-01 2.887234e-01 5000.0 4.485427e-03 4.137350e-02
</event>
<event>
4 7 1.0 5000.0 7.905138e-03 7.739137e-02
 1 -1 0 0 101   0  0.000000e+00  0.000000e+00  2.554262e+03  2.554262e+03 0.0 0.0 9.0
21 -1 0 0 103 101  0.000000e+00  0.000000e+00 -2.422428e+03  2.422428e+03 0.0 0.0 9.0
 1  1 1 2 103   0  1.253229e+03 -1.382277e+03  1.711560e+03  2.531938e+03 0.0047 0.0 9.0
22  1 1 2   0   0 -1.253229e+03  1.382277e+03 -1.579726e+03  2.444751e+03 0.0 0.0 9.0
#pdf 1 21 3.929634e-01 3.726812e-01 5000.0 4.569944e-02 5.395966e-02
</event>
<event>
4 7 1.0 5000.0 7.905138e-03 7.739137e-02
 1 -1 0 0 101   0  0.000000e+00  0.000000e+00  2.480314e+03  2.480314e+03 0.0 0.0 9.0
21 -1 0 0 103 101  0.000000e+00  0.000000e+00 -2.725093e+03  2.725093e+03 0.0 0.0 9.0
 1  1 1 2 103   0 -7.566139e+02 -2.483388e+03  1.706745e+01  2.596146e+03 0.0047 0.0 9.0
22  1 1 2   0   0  7.566139e+02  2.483388e+03 -2.618460e+02  2.609261e+03 0.0 0.0 9.0
#pdf 1 21 3.815868e-01 4.192451e-01 5000.0 5.021879e-02 3.640853e-02
</event>
<event>
4 7 1.0 5000.0 7.905138e-03 7.739137e-02
21 -1 0 0 103 101  0.000000e+00  0.000000e+00  2.868486e+03  2.868486e+03 0.0 0.0 9.0
 1 -1 0 0 101   0  0.000000e+00  0.000000e+00 -2.177629e+03  2.177629e+03 0.0 0.0 9.0
22  1 1 2   0   0 -6.029280e+02  2.623614e+02 -2.088745e+03  2.189797e+03 0.0 0.0 9.0
 1  1 1 2 103   0  6.029280e+02 -2.623614e+02  2.779602e+03  2.856317e+03 0.0047 0.0 9.0
#pdf 21 1 4.413055e-01 3.350198e-01 5000.0 6.184274e-03 2.345578e-02
</event>
<event>
4 7 1.0 5000.0 7.905138e-03 7.739137e-02
 1 -1 0 0 101   0  0.000000e+00  0.000000e+00  1.993483e+03  1.993483e+03 0.0 0.0 9.0
21 -1 0 0 103 101  0.000000e+00  0.000000e+00 -3.106435e+03  3.106435e+03 0.0 0.0 9.0
22  1 1 2   0   0 -8.311072e+02  1.596358e+03 -2.317505e+03  2.934267e+03 0.0 0.0 9.0
 1  1 1 2 103   0  8.311072e+02 -1.596358e+03  1.204552e+03  2.165651e+03 0.0047 0.0 9.0
#pdf 1 21 3.066897e-01 4.779131e-01 5000.0 8.841748e-02 2.079788e-02
</event>
<event>
4 7 1.0 5000.0 7.905138e-03 7.739137e-02
 1 -1 0 0 101   0  0.000000e+00  0.000000e+00  1.406908e+03  1.406908e+03 0.0 0.0 9.0
21 -1 0 0 103 101  0.000000e+00  0.000000e+00 -4.250483e+03  4.250483e+03 0.0 0.0 9.0
22  1 1 2   0   0  2.309135e+03 -8.046363e+02 -1.396093e+03  2.815780e+03 0.0 0.0 9.0
 1  1 1 2 103   0 -2.309135e+03  8.046363e+02 -1.447482e+03  2.841610e+03 0.0047 0.0 9.0
#pdf 1 21 2.164473e-01 6.539205e-01 5000.0 1.572704e-01 2.090811e-03
</event>
<event>
4 7 1.0 5000.0 7.905138e-03 7.739137e-02
21 -1 0 0 103 101  0.000000e+00  0.000000e+00  1.927898e+03  1.927898e+03 0.0 0.0 9.0
 1 -1 0 0 101   0  0.000000e+00  0.000000e+00 -3.417166e+03  3.417166e+03 0.0 0.0 9.0
22  1 1 2   0   0 -1.873872e+03  1.292334e+03 -1.979460e+03  3.016585e+03 0.0 0.0 9.0
 1  1 1 2 103   0  1.873872e+03 -1.292334e+03  4.901923e+02  2.328479e+03 0.0047 0.0 9.0
#pdf 21 1 2.965998e-01 5.257178e-01 5000.0 3.758321e-02 1.966184e-03
</event>
<event>
4 7 1.0 5000.0 7.905138e-03 7.739137e-02
 1 -1 0 0 101   0  0.000000e+00  0.000000e+00  3.036953e+03  3.036953e+03 0.0 0.0 9.0
21 -1 0 0 103 101  0.000000e+00  0.000000e+00 -2.009370e+03  2.009370e+03 0.0 0.0 9.0
 1  1 1 2 103   0 -2.378842e+03  4.314781e+02 -4.312115e+00  2.417660e+03 0.0047 0.0 9.0
22  1 1 2   0   0  2.378842e+03 -4.314781e+02  1.031895e+03  2.628663e+03 0.0 0.0 9.0
#pdf 1 21 4.672236e-01 3.091339e-01 5000.0 2.316952e-02 8.691688e-02
</event>
<event>
4 7 1.0 5000.0 7.905138e-03 7.739137e-02
21 -1 0 0 103 101  0.000000e+00  0.000000e+00  3.167934e+03  3.167934e+03 0.0 0.0 9.0
 1 -1 0 0 101   0  0.000000e+00  0.000000e+00 -2.084916e+03  2.084916e+03 0.0 0.0 9.0
 1  1 1 2 103   0 -1.274723e+02 -1.210411e+03 -1.771713e+03  2.149491e+03 0.0047 0.0 9.0
22  1 1 2   0   0  1.274723e+02  1.210411e+03  2.854731e+03  3.103358e+03 0.0 0.0 9.0
#pdf 21 1 4.873744e-01 3.207563e-01 5000.0 3.349780e-03 2.793292e-02
</event>
<event>
4 7 1.0 5000.0 7.905138e-03 7.739137e-02
21 -1 0 0 103 101  0.000000e+00  0.000000e+00  3.514874e+03  3.514874e+03 0.0 0.0 9.0
 1 -1 0 0 101   0  0.000000e+00  0.000000e+00 -1.738192e+03  1.738192e+03 0.0 0.0 9.0
22  1 1 2   0   0 -8.516990e+02  2.319647e+03  9.500574e+02  2.647406e+03 0.0 0.0 9.0
 1  1 1 2 103   0  8.516990e+02 -2.319647e+03  8.266247e+02  2.605659e+03 0.0047 0.0 9.0
#pdf 21 1 5.407498e-01 2.674141e-01 5000.0 1.582536e-03 5.372958e-02
</event>
<event>
4 7 1.0 5000.0 7.905138e-03 7.739137e-02
21 -1 0 0 103 101  0.000000e+00  0.000000e+00  1.821285e+03  1.821285e+03 0.0 0.0 9.0
 1 -1 0 0 101   0  0.000000e+00  0.000000e+00 -3.171153e+03  3.171153e+03 0.0 0.0 9.0
 1  1 1 2 103   0 -2.233656e+03 -7.993286e+02 -2.761114e+02  2.388385e+03 0.0047 0.0 9.0
22  1 1 2   0   0  2.233656e+03  7.993286e+02 -1.073757e+03  2.604054e+03 0.0 0.0 9.0
#pdf 21 1 2.801977e-01 4.878698e-01 5000.0 4.591281e-02 3.327334e-03
</event>
<event>
4 7 1.0 5000.0 7.905138e-03 7.739137e-02
21 -1 0 0 103 101  0.000000e+00  0.000000e+00  2.350270e+03  2.350270e+03 0.0 0.0 9.0
 1 -1 0 0 101   0  0.000000e+00  0.000000e+00 -2.700456e+03  2.700456e+03 0.0 0.0 9.0
 1  1 1 2 103   0 -2.073893e+02 -2.049708e+03  1.278400e+03  2.424587e+03 0.0047 0.0 9.0
22  1 1 2   0   0  2.073893e+02  2.049708e+03 -1.628586e+03  2.626139e+03 0.0 0.0 9.0
#pdf 21 1 3.615800e-01 4.154548e-01 5000.0 1.691808e-02 8.614716e-03
</event>
<event>
4 7 1.0 5000.0 7.905138e-03 7.739137e-02
21 -1 0 0 103 101  0.000000e+00  0.000000e+00  2.614710e+03  2.614710e+03 0.0 0.0 9.0
 1 -1 0 0 101   0  0.000000e+00  0.000000e+00 -2.366819e+03  2.366819e+03 0.0 0.0 9.0
22  1 1 2   0   0 -2.195845e+03 -8.550742e+02  9.222159e+02  2.530488e+03 0.0 0.0 9.0
 1  1 1 2 103   0  2.195845e+03  8.550742e+02 -6.743246e+02  2.451041e+03 0.0047 0.0 9.0
#pdf 21 1 4.022631e-01 3.641260e-01 5000.0 1.018540e-02 1.639703e-02
</event>
<event>
4 7 1.0 5000.0 7.905138e-03 7.739137e-02
21 -1 0 0 103 101  0.000000e+00  0.000000e+00  2.490762e+03  2.490762e+03 0.0 0.0 9.0
 1 -1 0 0 101   0  0.000000e+00  0.000000e+00 -2.453605e+03  2.453605e+03 0.0 0.0 9.0
22  1 1 2   0   0 -9.974523e+02 -1.047299e+03 -1.986373e+03  2.457116e+03 0.0 0.0 9.0
 1  1 1 2 103   0  9.974523e+02  1.047299e+03  2.023530e+03  2.487251e+03 0.0047 0.0 9.0
#pdf 21 1 3.831942e-01 3.774777e-01 5000.0 1.294762e-02 1.390432e-02
</event>
<event>
4 7 1.0 5000.0 7.905138e-03 7.739137e-02
21 -1 0 0 103 101  0.000000e+00  0.000000e+00  1.471399e+03  1.471399e+03 0.0 0.0 9.0
 1 -1 0 0 101   0  0.000000e+00  0.000000e+00 -4.497332e+03  4.497332e+03 0.0 0.0 9.0
22  1 1 2   0   0 -1.241027e+03 -7.761415e+02 -3.967095e+03  4.228521e+03 0.0 0.0 9.0
 1  1 1 2 103   0  1.241027e+03  7.761415e+02  9.411626e+02  1.740210e+03 0.0047 0.0 9.0
#pdf 21 1 2.263691e-01 6.918972e-01 5000.0 8.966607e-02 1.271841e-04
</event>
<event>
4 7 1.0 5000.0 7.905138e-03 7.739137e-02
 1 -1 0 0 101   0  0.000000e+00  0.000000e+00  1.794685e+03  1.794685e+03 0.0 0.0 9.0
21 -1 0 0 103 101  0.000000e+00  0.000000e+00 -3.394206e+03  3.394206e+03 0.0 0.0 9.0
 1  1 1 2 103   0  2.231613e+03 -3.392484e+02 -1.849028e+03  2.917892e+03 0.0047 0.0 9.0
22  1 1 2   0   0 -2.231613e+03  3.392484e+02  2.495067e+02  2.271000e+03 0.0 0.0 9.0
#pdf 1 21 2.761054e-01 5.221856e-01 5000.0 1.087216e-01 1.288837e-02
</event>
<event>
4 7 1.0 5000.0 7.905138e-03 7.739137e-02
21 -1 0 0 103 101  0.000000e+00  0.000000e+00  2.089255e+03  2.089255e+03 0.0 0.0 9.0
 1 -1 0 0 101   0  0.000000e+00  0.000000e+00 -3.031889e+03  3.031889e+03 0.0 0.0 9.0
22  1 1 2   0   0  1.258445e+03  1.019184e+03 -2.431455e+03  2.921369e+03 0.0 0.0 9.0
 1  1 1 2 103   0 -1.258445e+03 -1.019184e+03  1.488821e+03  2.199775e+03 0.0047 0.0 9.0
#pdf 21 1 3.214238e-01 4.664444e-01 5000.0 2.770557e-02 4.439740e-03
</event>
<event>
4 7 1.0 5000.0 7.905138e-03 7.739137e-02
 1 -1 0 0 101   0  0.000000e+00  0.000000e+00  3.354897e+03  3.354897e+03 0.0 0.0 9.0
21 -1 0 0 103 101  0.000000e+00  0.000000e+00 -1.784464e+03  1.784464e+03 0.0 0.0 9.0
 1  1 1 2 103   0  2.074380e+03 -1.238135e+03  1.192871e+03  2.694247e+03 0.0047 0.0 9.0
22  1 1 2   0   0 -2.074380e+03  1.238135e+03  3.775621e+02  2.445114e+03 0.0 0.0 9.0
#pdf 1 21 5.161380e-01 2.745329e-01 5000.0 1.380256e-02 1.098470e-01
</event>
<event>
4 7 1.0 5000.0 7.905138e-03 7.739137e-02
 1 -1 0 0 101   0  0.000000e+00  0.000000e+00  1.489657e+03  1.489657e+03 0.0 0.0 9.0
21 -1 0 0 103 101  0.000000e+00  0.000000e+00 -3.296611e+03  3.296611e+03 0.0 0.0 9.0
22  1 1 2   0   0 -6.758718e+02 -1.860511e+03 -1.979345e+03  2.799305e+03 0.0 0.0 9.0
 1  1 1 2 103   0  6.758718e+02  1.860511e+03  1.723905e+02  1.986963e+03 0.0047 0.0 9.0
#pdf 1 21 2.291779e-01 5.071709e-01 5000.0 1.458694e-01 1.524966e-02
</event>
<event>
4 7 1.0 5000.0 7.905138e-03 7.739137e-02
 1 -1 0 0 101   0  0.000000e+00  0.000000e+00  2.343640e+03  2.343640e+03 0.0 0.0 9.0
21 -1 0 0 103 101  0.000000e+00  0.000000e+00 -2.679603e+03  2.679603e+03 0.0 0.0 9.0
22  1 1 2   0   0  1.888191e+03 -9.891584e+02  1.152672e+03  2.423294e+03 0.0 0.0 9.0
 1  1 1 2 103   0 -1.888191e+03  9.891584e+02 -1.488636e+03  2.599949e+03 0.0047 0.0 9.0
#pdf 1 21 3.605600e-01 4.122467e-01 5000.0 5.939507e-02 3.873171e-02
</event>
<event>
4 7 1.0 5000.0 7.905138e-03 7.739137e-02
 1 -1 0 0 101   0  0.000000e+00  0.000000e+00  2.381003e+03  2.381003e+03 0.0 0.0 9.0
21 -1 0 0 103 101  0.000000e+00  0.000000e+00 -2.234725e+03  2.234725e+03 0.0 0.0 9.0
 1  1 1 2 103   0  5.364541e+02 -2.240491e+03 -4.226628e+01  2.304207e+03 0.0047 0.0 9.0
22  1 1 2   0   0 -5.364541e+02  2.240491e+03  1.885445e+02  2.311522e+03 0.0 0.0 9.0
#pdf 1 21 3.663082e-01 3.438039e-01 5000.0 5.677123e-02 6.754729e-02
</event>
<event>
4 7 1.0 5000.0 7.905138e-03 7.739137e-02
21 -1 0 0 103 101  0.000000e+00  0.000000e+00  2.977355e+03  2.977355e+03 0.0 0.0 9.0
 1 -1 0 0 101   0  0.000000e+00  0.000000e+00 -2.130733e+03  2.130733e+03 0.0 0.0 9.0
22  1 1 2   0   0 -1.448819e+03  1.166629e+03 -1.298696e+03  2.268636e+03 0.0 0.0 9.0
 1  1 1 2 103   0  1.448819e+03 -1.166629e+03  2.145317e+03  2.839452e+03 0.0047 0.0 9.0
#pdf 21 1 4.580546e-01 3.278051e-01 5000.0 4.962540e-03 2.562540e-02
</event>
<event>
4 7 1.0 5000.0 7.905138e-03 7.739137e-02
 1 -1 0 0 101   0  0.000000e+00  0.000000e+00  2.297383e+03  2.297383e+03 0.0 0.0 9.0
21 -1 0 0 103 101  0.000000e+00  0.000000e+00 -2.752669e+03  2.752669e+03 0.0 0.0 9.0
 1  1 1 2 103   0 -1.348075e+03  1.934050e+03 -1.106482e+03  2.604258e+03 0.0047 0.0 9.0
22  1 1 2   0   0  1.348075e+03 -1.934050e+03  6.511955e+02  2.445795e+03 0.0 0.0 9.0
#pdf 1 21 3.534435e-01 4.234876e-01 5000.0 6.276354e-02 3.505149e-02
</event>
<event>
4 7 1.0 5000.0 7.905138e-03 7.739137e-02
21 -1 0 0 103 101  0.000000e+00  0.000000e+00  2.109208e+03  2.109208e+03 0.0 0.0 9.0
 1 -1 0 0 101   0  0.000000e+00  0.000000e+00 -2.855551e+03  2.855551e+03 0.0 0.0 9.0
22  1 1 2   0   0  3.493526e+02  2.190091e+03  6.898156e+02  2.322582e+03 0.0 0.0 9.0
 1  1 1 2 103   0 -3.493526e+02 -2.190091e+03 -1.436159e+03  2.642176e+03 0.0047 0.0 9.0
#pdf 21 1 3.244935e-01 4.393156e-01 5000.0 2.668441e-02 6.346681e-03
</event>
<event>
4 7 1.0 5000.0 7.905138e-03 7.739137e-02
21 -1 0 0 103 101  0.000000e+00  0.000000e+00  4.071831e+03  4.071831e+03 0.0 0.0 9.0
 1 -1 0 0 101   0  0.000000e+00  0.000000e+00 -1.515072e+03  1.515072e+03 0.0 0.0 9.0
22  1 1 2   0   0 -4.125996e+02  2.169406e+03 -2.772935e-01  2.208294e+03 0.0 0.0 9.0
 1  1 1 2 103   0  4.125996e+02 -2.169406e+03  2.557037e+03  3.378609e+03 0.0047 0.0 9.0
#pdf 21 1 6.264356e-01 2.330880e-01 5000.0 4.160641e-04 8.240359e-02
</event>
<event>
4 7 1.0 5000.0 7.905138e-03 7.739137e-02
21 -1 0 0 103 101  0.000000e+00  0.000000e+00  3.187638e+03  3.187638e+03 0.0 0.0 9.0
 1 -1 0 0 101   0  0.000000e+00  0.000000e+00 -1.929284e+03  1.929284e+03 0.0 0.0 9.0
 1  1 1 2 103   0  2.478359e+03  7.683316e+01  5.867204e+02  2.548020e+03 0.0047 0.0 9.0
22  1 1 2   0   0 -2.478359e+03 -7.683316e+01  6.716338e+02  2.568902e+03 0.0 0.0 9.0
#pdf 21 1 4.904059e-01 2.968130e-01 5000.0 3.214651e-03 3.748382e-02
</event>
<event>
4 7 1.0 5000.0 7.905138e-03 7.739137e-02
 1 -1 0 0 101   0  0.000000e+00  0.000000e+00  1.706212e+03  1.706212e+03 0.0 0.0 9.0
21 -1 0 0 103 101  0.000000e+00  0.000000e+00 -3.654172e+03  3.654172e+03 0.0 0.0 9.0
22  1 1 2   0   0 -5.709067e+02  8.031815e+02  1.488670e+03  1.785266e+03 0.0 0.0 9.0
 1  1 1 2 103   0  5.709067e+02 -8.031815e+02 -3.436631e+03  3.575118e+03 0.0047 0.0 9.0
#pdf 1 21 2.624941e-01 5.621804e-01 5000.0 1.187280e-01 7.963957e-03
</event>
<event>
4 7 1.0 5000.0 7.905138e-03 7.739137e-02
21 -1 0 0 103 101  0.000000e+00  0.000000e+00  2.503180e+03  2.503180e+03 0.0 0.0 9.0
 1 -1 0 0 101   0  0.000000e+00  0.000000e+00 -2.464648e+03  2.464648e+03 0.0 0.0 9.0
 1  1 1 2 103   0  1.205160e+03  1.161952e+03  1.854237e+03  2.498146e+03 0.0047 0.0 9.0
22  1 1 2   0   0 -1.205160e+03 -1.161952e+03 -1.815705e+03  2.469681e+03 0.0 0.0 9.0
#pdf 21 1 3.851046e-01 3.791766e-01 5000.0 1.264013e-02 1.361463e-02
</event>
<event>
4 7 1.0 5000.0 7.905138e-03 7.739137e-02
21 -1 0 0 103 101  0.000000e+00  0.000000e+00  3.825114e+03  3.825114e+03 0.0 0.0 9.0
 1 -1 0 0 101   0  0.000000e+00  0.000000e+00 -1.483575e+03  1.483575e+03 0.0 0.0 9.0
22  1 1 2   0   0  4.597462e+02 -1.067280e+03  3.487859e+03  3.676359e+03 0.0 0.0 9.0
 1  1 1 2 103   0 -4.597462e+02  1.067280e+03 -1.146320e+03  1.632330e+03 0.0047 0.0 9.0
#pdf 21 1 5.884791e-01 2.282423e-01 5000.0 7.703256e-04 8.755693e-02
</event>
<event>
4 7 1.0 5000.0 7.905138e-03 7.739137e-02
 1 -1 0 0 101   0  0.000000e+00  0.000000e+00  2.615468e+03  2.615468e+03 0.0 0.0 9.0
21 -1 0 0 103 101  0.000000e+00  0.000000e+00 -2.007254e+03  2.007254e+03 0.0 0.0 9.0
22  1 1 2   0   0  6.929018e+02 -1.455457e+03 -1.338496e+03  2.095242e+03 0.0 0.0 9.0
 1  1 1 2 103   0 -6.929018e+02  1.455457e+03  1.946710e+03  2.527479e+03 0.0047 0.0 9.0
#pdf 1 21 4.023797e-01 3.088083e-01 5000.0 4.219114e-02 8.711587e-02
</event>
<event>
4 7 1.0 5000.0 7.905138e-03 7.739137e-02
 1 -1 0 0 101   0  0.000000e+00  0.000000e+00  2.323204e+03  2.323204e+03 0.0 0.0 9.0
21 -1 0 0 103 101  0.000000e+00  0.000000e+00 -2.620920e+03  2.620920e+03 0.0 0.0 9.0
 1  1 1 2 103   0 -1.683255e+03  8.757114e+02 -1.729292e+03  2.567230e+03 0.0047 0.0 9.0
22  1 1 2   0   0  1.683255e+03 -8.757114e+02  1.431576e+03  2.376894e+03 0.0 0.0 9.0
#pdf 1 21 3.574160e-01 4.032185e-01 5000.0 6.086413e-02 4.188842e-02
</event>
<event>
4 7 1.0 5000.0 7.905138e-03 7.739137e-02
 1 -1 0 0 101   0  0.000000e+00  0.000000e+00  2.824788e+03  2.824788e+03 0.0 0.0 9.0
21 -1 0 0 103 101  0.000000e+00  0.000000e+00 -2.527162e+03  2.527162e+03 0.0 0.0 9.0
22  1 1 2   0   0 -2.498582e+03 -3.539664e+02 -7.303238e+02  2.627086e+03 0.0 0.0 9.0
 1  1 1 2 103   0  2.498582e+03  3.539664e+02  1.027950e+03  2.724864e+03 0.0047 0.0 9.0
#pdf 1 21 4.345827e-01 3.887942e-01 5000.0 3.169049e-02 4.731769e-02
</event>
<event>
4 7 1.0 5000.0 7.905138e-03 7.739137e-02
21 -1 0 0 103 101  0.000000e+00  0.000000e+00  1.462170e+03  1.462170e+03 0.0 0.0 9.0
 1 -1 0 0 101   0  0.000000e+00  0.000000e+00 -4.236241e+03  4.236241e+03 0.0 0.0 9.0
 1  1 1 2 103   0 -6.945773e+01  2.271009e+03 -2.549907e+03  3.415308e+03 0.0047 0.0 9.0
22  1 1 2   0   0  6.945773e+01 -2.271009e+03 -2.241642e+02  2.283103e+03 0.0 0.0 9.0
#pdf 21 1 2.249492e-01 6.517293e-01 5000.0 9.130538e-02 2.687391e-04
</event>
<event>
4 7 1.0 5000.0 7.905138e-03 7.739137e-02
 1 -1 0 0 101   0  0.000000e+00  0.000000e+00  2.020499e+03  2.020499e+03 0.0 0.0 9.0
21 -1 0 0 103 101  0.000000e+00  0.000000e+00 -3.437597e+03  3.437597e+03 0.0 0.0 9.0
 1  1 1 2 103   0 -1.263768e+02 -1.452104e+03  1.565117e+03  2.138731e+03 0.0047 0.0 9.0
22  1 1 2   0   0  1.263768e+02  1.452104e+03 -2.982215e+03  3.319365e+03 0.0 0.0 9.0
#pdf 1 21 3.108460e-01 5.288611e-01 5000.0 8.587569e-02 1.193676e-02
</event>
<event>
4 7 1.0 5000.0 7.905138e-03 7.739137e-02
 1 -1 0 0 101   0  0.000000e+00  0.000000e+00  2.197869e+03  2.197869e+03 0.0 0.0 9.0
21 -1 0 0 103 101  0.000000e+00  0.000000e+00 -2.346403e+03  2.346403e+03 0.0 0.0 9.0
22  1 1 2   0   0  2.054538e+03  3.072427e+02 -9.921236e+02  2.302137e+03 0.0 0.0 9.0
 1  1 1 2 103   0 -2.054538e+03 -3.072427e+02  8.435894e+02  2.242135e+03 0.0047 0.0 9.0
#pdf 1 21 3.381336e-01 3.609851e-01 5000.0 7.047621e-02 5.919850e-02
</event>
<event>
4 7 1.0 5000.0 7.905138e-03 7.739137e-02
 1 -1 0 0 101   0  0.000000e+00  0.000000e+00  3.066287e+03  3.066287e+03 0.0 0.0 9.0
21 -1 0 0 103 101  0.000000e+00  0.000000e+00 -2.018605e+03  2.018605e+03 0.0 0.0 9.0
 1  1 1 2 103   0  2.306198e+03 -8.880035e+02  2.302752e+02  2.481960e+03 0.0047 0.0 9.0
22  1 1 2   0   0 -2.306198e+03  8.880035e+02  8.174066e+02  2.602932e+03 0.0 0.0 9.0
#pdf 1 21 4.717365e-01 3.105546e-01 5000.0 2.214545e-02 8.605226e-02
</event>
<event>
4 7 1.0 5000.0 7.905138e-03 7.739137e-02
21 -1 0 0 103 101  0.000000e+00  0.000000e+00  2.302339e+03  2.302339e+03 0.0 0.0 9.0
 1 -1 0 0 101   0  0.000000e+00  0.000000e+00 -2.595689e+03  2.595689e+03 0.0 0.0 9.0
22  1 1 2   0   0  1.597331e+03  1.767110e+03 -6.972182e+02  2.481987e+03 0.0 0.0 9.0
 1  1 1 2 103   0 -1.597331e+03 -1.767110e+03  4.038685e+02  2.416041e+03 0.0047 0.0 9.0
#pdf 21 1 3.542060e-01 3.993368e-01 5000.0 1.852714e-02 1.056756e-02
</event>
<event>
4 7 1.0 5000.0 7.905138e-03 7.739137e-02
 1 -1 0 0 101   0  0.000000e+00  0.000000e+00  2.090151e+03  2.090151e+03 0.0 0.0 9.0
21 -1 0 0 103 101  0.000000e+00  0.000000e+00 -3.056289e+03  3.056289e+03 0.0 0.0 9.0
22  1 1 2   0   0  5.365236e+02 -2.077603e+03  8.767010e+02  2.317951e+03 0.0 0.0 9.0
 1  1 1 2 103   0 -5.365236e+02  2.077603e+03 -1.842840e+03  2.828489e+03 0.0047 0.0 9.0
#pdf 1 21 3.215616e-01 4.701984e-01 5000.0 7.956810e-02 2.249079e-02
</event>
<event>
4 7 1.0 5000.0 7.905138e-03 7.739137e-02
 1 -1 0 0 101   0  0.000000e+00  0.000000e+00  1.804949e+03  1.804949e+03 0.0 0.0 9.0
21 -1 0 0 103 101  0.000000e+00  0.000000e+00 -3.475729e+03  3.475729e+03 0.0 0.0 9.0
22  1 1 2   0   0  1.672871e+03 -6.132580e+02  1.020320e+03  2.053202e+03 0.0 0.0 9.0
 1  1 1 2 103   0 -1.672871e+03  6.132580e+02 -2.691100e+03  3.227476e+03 0.0047 0.0 9.0
#pdf 1 21 2.776845e-01 5.347275e-01 5000.0 1.075997e-01 1.114168e-02
</event>
<event>
4 7 1.0 5000.0 7.905138e-03 7.739137e-02
21 -1 0 0 103 101  0.000000e+00  0.000000e+00  1.748114e+03  1.748114e+03 0.0 0.0 9.0
 1 -1 0 0 101   0  0.000000e+00  0.000000e+00 -3.567898e+03  3.567898e+03 0.0 0.0 9.0
22  1 1 2   0   0 -1.202371e+03  8.574152e+02  1.233622e+03  1.924235e+03 0.0 0.0 9.0
 1  1 1 2 103   0  1.202371e+03 -8.574152e+02 -3.053406e+03  3.391776e+03 0.0047 0.0 9.0
#pdf 21 1 2.689406e-01 5.489073e-01 5000.0 5.272853e-02 1.404426e-03
</event>
<event>
4 7 1.0 5000.0 7.905138e-03 7.739137e-02
 1 -1 0 0 101   0  0.000000e+00  0.000000e+00  1.629985e+03  1.629985e+03 0.0 0.0 9.0
21 -1 0 0 103 101  0.000000e+00  0.000000e+00 -3.815352e+03  3.815352e+03 0.0 0.0 9.0
22  1 1 2   0   0  2.203191e+02 -2.230390e+03 -2.286570e+03  3.201809e+03 0.0 0.0 9.0
 1  1 1 2 103   0 -2.203191e+02  2.230390e+03  1.012026e+02  2.243528e+03 0.0047 0.0 9.0
#pdf 1 21 2.507669e-01 5.869773e-01 5000.0 1.278472e-01 5.740668e-03
</event>
<event>
4 7 1.0 5000.0 7.905138e-03 7.739137e-02
 1 -1 0 0 101   0  0.000000e+00  0.000000e+00  2.792035e+03  2.792035e+03 0.0 0.0 9.0
21 -1 0 0 103 101  0.000000e+00  0.000000e+00 -1.916898e+03  1.916898e+03 0.0 0.0 9.0
22  1 1 2   0   0 -6.305583e+02  1.733499e+03  1.858541e+03  2.618549e+03 0.0 0.0 9.0
 1  1 1 2 103   0  6.305583e+02 -1.733499e+03 -9.834034e+02  2.090384e+03 0.0047 0.0 9.0
#pdf 1 21 4.295439e-01 2.949073e-01 5000.0 3.318189e-02 9.589722e-02
</event>
<event>
4 7 1.0 5000.0 7.905138e-03 7.739137e-02
 1 -1 0 0 101   0  0.000000e+00  0.000000e+00  2.054338e+03  2.054338e+03 0.0 0.0 9.0
21 -1 0 0 103 101  0.000000e+00  0.000000e+00 -2.900985e+03  2.900985e+03 0.0 0.0 9.0
 1  1 1 2 103   0  4.681134e+02 -1.798852e+03  1.182888e+03  2.203230e+03 0.0047 0.0 9.0
22  1 1 2   0   0 -4.681134e+02  1.798852e+03 -2.029536e+03  2.752093e+03 0.0 0.0 9.0
#pdf 1 21 3.160520e-01 4.463055e-01 5000.0 8.276502e-02 2.838767e-02
</event>
<event>
4 7 1.0 5000.0 7.905138e-03 7.739137e-02
 1 -1 0 0 101   0  0.000000e+00  0.000000e+00  2.378795e+03  2.378795e+03 0.0 0.0 9.0
21 -1 0 0 103 101  0.000000e+00  0.000000e+00 -2.577440e+03  2.577440e+03 0.0 0.0 9.0
22  1 1 2   0   0 -3.459062e+02  2.436168e+03  1.777245e+02  2.467013e+03 0.0 0.0 9.0
 1  1 1 2 103   0  3.459062e+02 -2.436168e+03 -3.763696e+02  2.489221e+03 0.0047 0.0 9.0
#pdf 1 21 3.659684e-01 3.965292e-01 5000.0 5.692450e-02 4.434719e-02
</event>
<event>
4 7 1.0 5000.0 7.905138e-03 7.739137e-02
21 -1 0 0 103 101  0.000000e+00  0.000000e+00  2.359686e+03  2.359686e+03 0.0 0.0 9.0
 1 -1 0 0 101   0  0.000000e+00  0.000000e+00 -2.522727e+03  2.522727e+03 0.0 0.0 9.0
 1  1 1 2 103   0  2.270724e+03  7.597301e+02 -5.502531e+02  2.456859e+03 0.0047 0.0 9.0
22  1 1 2   0   0 -2.270724e+03 -7.597301e+02  3.872112e+02  2.425554e+03 0.0 0.0 9.0
#pdf 21 1 3.630286e-01 3.881119e-01 5000.0 1.662013e-02 1.216976e-02
</event>
<event>
4 7 1.0 5000.0 7.905138e-03 7.739137e-02
 1 -1 0 0 101   0  0.000000e+00  0.000000e+00  2.559174e+03  2.559174e+03 0.0 0.0 9.0
21 -1 0 0 103 101  0.000000e+00  0.000000e+00 -2.471865e+03  2.471865e+03 0.0 0.0 9.0
 1  1 1 2 103   0 -2.228283e+02 -8.929775e+02 -2.297397e+03  2.474893e+03 0.0047 0.0 9.0
22  1 1 2   0   0  2.228283e+02  8.929775e+02  2.384706e+03  2.556146e+03 0.0 0.0 9.0
#pdf 1 21 3.937191e-01 3.802870e-01 5000.0 4.541044e-02 5.075494e-02
</event>
<event>
4 7 1.0 5000.0 7.905138e-03 7.739137e-02
21 -1 0 0 103 101  0.000000e+00  0.000000e+00  2.727746e+03  2.727746e+03 0.0 0.0 9.0
 1 -1 0 0 101   0  0.000000e+00  0.000000e+00 -2.283564e+03  2.283564e+03 0.0 0.0 9.0
22  1 1 2   0   0  4.310026e+02 -5.434199e+02  2.629046e+03  2.718998e+03 0.0 0.0 9.0
 1  1 1 2 103   0 -4.310026e+02  5.434199e+02 -2.184863e+03  2.292313e+03 0.0047 0.0 9.0
#pdf 21 1 4.196533e-01 3.513176e-01 5000.0 8.166326e-03 1.920477e-02
</event>
<event>
4 7 1.0 5000.0 7.905138e-03 7.739137e-02
 1 -1 0 0 101   0  0.000000e+00  0.000000e+00  1.776551e+03  1.776551e+03 0.0 0.0 9.0
21 -1 0 0 103 101  0.000000e+00  0.000000e+00 -3.398851e+03  3.398851e+03 0.0 0.0 9.0
 1  1 1 2 103   0 -1.426675e+03  2.485957e+02  1.279417e+03  1.932384e+03 0.0047 0.0 9.0
22  1 1 2   0   0  1.426675e+03 -2.485957e+02 -2.901717e+03  3.243018e+03 0.0 0.0 9.0
#pdf 1 21 2.733155e-01 5.229002e-01 5000.0 1.107240e-01 1.278380e-02
</event>
<event>
4 7 1.0 5000.0 7.905138e-03 7.739137e-02
 1 -1 0 0 101   0  0.000000e+00  0.000000e+00  2.046263e+03  2.046263e+03 0.0 0.0 9.0
21 -1 0 0 103 101  0.000000e+00  0.000000e+00 -3.135840e+03  3.135840e+03 0.0 0.0 9.0
22  1 1 2   0   0 -9.705963e+02  1.848205e+03 -2.012460e+03  2.899641e+03 0.0 0.0 9.0
 1  1 1 2 103   0  9.705963e+02 -1.848205e+03  9.228831e+02  2.282462e+03 0.0047 0.0 9.0
#pdf 1 21 3.148097e-01 4.824369e-01 5000.0 8.349932e-02 1.985154e-02
</event>
<event>
4 7 1.0 5000.0 7.905138e-03 7.739137e-02
 1 -1 0 0 101   0  0.000000e+00  0.000000e+00  2.912029e+03  2.912029e+03 0.0 0.0 9.0
21 -1 0 0 103 101  0.000000e+00  0.000000e+00 -1.832954e+03  1.832954e+03 0.0 0.0 9.0
22  1 1 2   0   0  1.574027e+03 -1.260822e+03  1.696976e+03  2.635709e+03 0.0 0.0 9.0
 1  1 1 2 103   0 -1.574027e+03  1.260822e+03 -6.179019e+02  2.109274e+03 0.0047 0.0 9.0
#pdf 1 21 4.480044e-01 2.819930e-01 5000.0 2.793431e-02 1.045822e-01
</event>
<event>
4 7 1.0 5000.0 7.905138e-03 7.739137e-02
 1 -1 0 0 101   0  0.000000e+00  0.000000e+00  2.919230e+03  2.919230e+03 0.0 0.0 9.0
21 -1 0 0 103 101  0.000000e+00  0.000000e+00 -2.060702e+03  2.060702e+03 0.0 0.0 9.0
22  1 1 2   0   0 -2.532594e+02 -2.365318e+03  1.035663e+03  2.594508e+03 0.0 0.0 9.0
 1  1 1 2 103   0  2.532594e+02  2.365318e+03 -1.771351e+02  2.385424e+03 0.0047 0.0 9.0
#pdf 1 21 4.491123e-01 3.170310e-01 5000.0 2.764414e-02 8.219002e-02
</event>
<event>
4 7 1.0 5000.0 7.905138e-03 7.739137e-02
 1 -1 0 0 101   0  0.000000e+00  0.000000e+00  2.663345e+03  2.663345e+03 0.0 0.0 9.0
21 -1 0 0 103 101  0.000000e+00  0.000000e+00 -2.276773e+03  2.276773e+03 0.0 0.0 9.0
22  1 1 2   0   0  2.151772e+03  1.110588e+03  6.422140e+02  2.505188e+03 0.0 0.0 9.0
 1  1 1 2 103   0 -2.151772e+03 -1.110588e+03 -2.556423e+02  2.434929e+03 0.0047 0.0 9.0
#pdf 1 21 4.097453e-01 3.502728e-01 5000.0 3.958794e-02 6.431099e-02
</event>
<event>
4 7 1.0 5000.0 7.905138e-03 7.739137e-02
21 -1 0 0 103 101  0.000000e+00  0.000000e+00  2.610735e+03  2.610735e+03 0.0 0.0 9.0
 1 -1 0 0 101   0  0.000000e+00  0.000000e+00 -1.740346e+03  1.740346e+03 0.0 0.0 9.0
 1  1 1 2 103   0 -1.561629e+03 -8.328233e+02 -7.772959e+02  1.932995e+03 0.0047 0.0 9.0
22  1 1 2   0   0  1.561629e+03  8.328233e+02  1.647685e+03  2.418087e+03 0.0 0.0 9.0
#pdf 21 1 4.016516e-01 2.677456e-01 5000.0 1.026418e-02 5.351046e-02
</event>
<event>
4 7 1.0 5000.0 7.905138e-03 7.739137e-02
21 -1 0 0 103 101  0.000000e+00  0.000000e+00  2.366379e+03  2.366379e+03 0.0 0.0 9.0
 1 -1 0 0 101   0  0.000000e+00  0.000000e+00 -2.618883e+03  2.618883e+03 0.0 0.0 9.0
 1  1 1 2 103   0 -2.960713e+02 -4.850501e+02  2.300566e+03  2.369713e+03 0.0047 0.0 9.0
22  1 1 2   0   0  2.960713e+02  4.850501e+02 -2.553070e+03  2.615550e+03 0.0 0.0 9.0
#pdf 21 1 3.640583e-01 4.029051e-01 5000.0 1.641072e-02 1.010329e-02
</event>
<event>
4 7 1.0 5000.0 7.905138e-03 7.739137e-02
21 -1 0 0 103 101  0.000000e+00  0.000000e+00  2.183696e+03  2.183696e+03 0.0 0.0 9.0
 1 -1 0 0 101   0  0.000000e+00  0.000000e+00 -2.686363e+03  2.686363e+03 0.0 0.0 9.0
22  1 1 2   0   0 -2.356515e+03 -5.540109e+02 -1.727545e+02  2.426919e+03 0.0 0.0 9.0
 1  1 1 2 103   0  2.356515e+03  5.540109e+02 -3.299127e+02  2.443140e+03 0.0047 0.0 9.0
#pdf 21 1 3.359532e-01 4.132866e-01 5000.0 2.318761e-02 8.855568e-03
</event>
<event>
4 7 1.0 5000.0 7.905138e-03 7.739137e-02
 1 -1 0 0 101   0  0.000000e+00  0.000000e+00  2.216109e+03  2.216109e+03 0.0 0.0 9.0
21 -1 0 0 103 101  0.000000e+00  0.000000e+00 -2.747682e+03  2.747682e+03 0.0 0.0 9.0
 1  1 1 2 103   0 -6.649518e+02 -9.194480e+02  1.938147e+03  2.245876e+03 0.0047 0.0 9.0
22  1 1 2   0   0  6.649518e+02  9.194480e+02 -2.469720e+03  2.717915e+03 0.0 0.0 9.0
#pdf 1 21 3.409398e-01 4.227204e-01 5000.0 6.901560e-02 3.529406e-02
</event>
<event>
4 7 1.0 5000.0 7.905138e-03 7.739137e-02
21 -1 0 0 103 101  0.000000e+00  0.000000e+00  4.156265e+03  4.156265e+03 0.0 0.0 9.0
 1 -1 0 0 101   0  0.000000e+00  0.000000e+00 -1.813990e+03  1.813990e+03 0.0 0.0 9.0
22  1 1 2   0   0  1.504061e+03  6.461128e+02  3.567770e+03  3.925384e+03 0.0 0.0 9.0
 1  1 1 2 103   0 -1.504061e+03 -6.461128e+02 -1.225494e+03  2.044871e+03 0.0047 0.0 9.0
#pdf 21 1 6.394254e-01 2.790753e-01 5000.0 3.333443e-04 4.655193e-02
</event>
<event>
4 7 1.0 5000.0 7.905138e-03 7.739137e-02
21 -1 0 0 103 101  0.000000e+00  0.000000e+00  3.278615e+03  3.278615e+03 0.0 0.0 9.0
 1 -1 0 0 101   0  0.000000e+00  0.000000e+00 -1.887822e+03  1.887822e+03 0.0 0.0 9.0
 1  1 1 2 103   0  2.067375e+03 -1.253162e+03  1.305266e+03  2.747394e+03 0.0047 0.0 9.0
22  1 1 2   0   0 -2.067375e+03  1.253162e+03  8.552659e+01  2.419043e+03 0.0 0.0 9.0
#pdf 21 1 5.044023e-01 2.904342e-01 5000.0 2.651604e-03 4.052565e-02
</event>
<event>
4 7 1.0 5000.0 7.905138e-03 7.739137e-02
21 -1 0 0 103 101  0.000000e+00  0.000000e+00  3.570614e+03  3.570614e+03 0.0 0.0 9.0
 1 -1 0 0 101   0  0.000000e+00  0.000000e+00 -1.732732e+03  1.732732e+03 0.0 0.0 9.0
 1  1 1 2 103   0  2.126662e+03  5.608787e+02  2.157429e+03  3.080873e+03 0.0047 0.0 9.0
22  1 1 2   0   0 -2.126662e+03 -5.608787e+02 -3.195472e+02  2.222473e+03 0.0 0.0 9.0
#pdf 21 1 5.493253e-01 2.665742e-01 5000.0 1.395656e-03 5.428918e-02
</event>
<event>
4 7 1.0 5000.0 7.905138e-03 7.739137e-02
21 -1 0 0 103 101  0.000000e+00  0.000000e+00  3.356353e+03  3.356353e+03 0.0 0.0 9.0
 1 -1 0 0 101   0  0.000000e+00  0.000000e+00 -1.754392e+03  1.754392e+03 0.0 0.0 9.0
 1  1 1 2 103   0  7.207615e+02  1.828463e+03  2.299742e+03  3.025159e+03 0.0047 0.0 9.0
22  1 1 2   0   0 -7.207615e+02 -1.828463e+03 -6.977803e+02  2.085586e+03 0.0 0.0 9.0
#pdf 21 1 5.163620e-01 2.699064e-01 5000.0 2.244309e-03 5.210543e-02
</event>
<event>
4 7 1.0 5000.0 7.905138e-03 7.739137e-02
 1 -1 0 0 101   0  0.000000e+00  0.000000e+00  2.797094e+03  2.797094e+03 0.0 0.0 9.0
21 -1 0 0 103 101  0.000000e+00  0.000000e+00 -2.166562e+03  2.166562e+03 0.0 0.0 9.0
22  1 1 2   0   0 -2.640111e+02 -1.796673e+03 -1.360338e+03  2.268976e+03 0.0 0.0 9.0
 1  1 1 2 103   0  2.640111e+02  1.796673e+03  1.990870e+03  2.694679e+03 0.0047 0.0 9.0
#pdf 1 21 4.303221e-01 3.333172e-01 5000.0 3.294795e-02 7.303594e-02
</event>
<event>
4 7 1.0 5000.0 7.905138e-03 7.739137e-02
21 -1 0 0 103 101  0.000000e+00  0.000000e+00  2.763541e+03  2.763541e+03 0.0 0.0 9.0
 1 -1 0 0 101   0  0.000000e+00  0.000000e+00 -2.212467e+03  2.212467e+03 0.0 0.0 9.0
22  1 1 2   0   0  2.006564e+03  6.632128e+02  1.567263e+03  2.631058e+03 0.0 0.0 9.0
 1  1 1 2 103   0 -2.006564e+03 -6.632128e+02 -1.016189e+03  2.344950e+03 0.0047 0.0 9.0
#pdf 21 1 4.251602e-01 3.403796e-01 5000.0 7.610533e-03 2.196059e-02
</event>
<event>
4 7 1.0 5000.0 7.905138e-03 7.739137e-02
21 -1 0 0 103 101  0.000000e+00  0.000000e+00  3.101175e+03  3.101175e+03 0.0 0.0 9.0
 1 -1 0 0 101   0  0.000000e+00  0.000000e+00 -2.014653e+03  2.014653e+03 0.0 0.0 9.0
 1  1 1 2 103   0 -2.522256e+00 -2.380423e+03  1.323539e+03  2.723633e+03 0.0047 0.0 9.0
22  1 1 2   0   0  2.522256e+00  2.380423e+03 -2.370163e+02  2.392195e+03 0.0 0.0 9.0
#pdf 21 1 4.771039e-01 3.099466e-01 5000.0 3.850156e-03 3.191684e-02
</event>
<event>
4 7 1.0 5000.0 7.905138e-03 7.739137e-02
21 -1 0 0 103 101  0.000000e+00  0.000000e+00  1.728870e+03  1.728870e+03 0.0 0.0 9.0
 1 -1 0 0 101   0  0.000000e+00  0.000000e+00 -3.625241e+03  3.625241e+03 0.0 0.0 9.0
 1  1 1 2 103   0 -3.147662e+02  2.457799e+03 -5.660388e+02  2.541703e+03 0.0047 0.0 9.0
22  1 1 2   0   0  3.147662e+02 -2.457799e+03 -1.330333e+03  2.812408e+03 0.0 0.0 9.0
#pdf 21 1 2.659800e-01 5.577294e-01 5000.0 5.468894e-02 1.234148e-03
</event>
<event>
4 7 1.0 5000.0 7.905138e-03 7.739137e-02
 1 -1 0 0 101   0  0.000000e+00  0.000000e+00  1.837588e+03  1.837588e+03 0.0 0.0 9.0
21 -1 0 0 103 101  0.000000e+00  0.000000e+00 -2.778564e+03  2.778564e+03 0.0 0.0 9.0
 1  1 1 2 103   0  2.221470e+03  4.132832e+02 -4.592343e+02  2.305782e+03 0.0047 0.0 9.0
22  1 1 2   0   0 -2.221470e+03 -4.132832e+02 -4.817411e+02  2.310370e+03 0.0 0.0 9.0
#pdf 1 21 2.827059e-01 4.274713e-01 5000.0 1.040891e-01 3.381209e-02
</event>
<event>
4 7 1.0 5000.0 7.905138e-03 7.739137e-02
21 -1 0 0 103 101  0.000000e+00  0.000000e+00  1.919812e+03  1.919812e+03 0.0 0.0 9.0
 1 -1 0 0 101   0  0.000000e+00  0.000000e+00 -3.238697e+03  3.238697e+03 0.0 0.0 9.0
 1  1 1 2 103   0 -1.912042e+03  1.088176e+03 -1.873532e+03  2.889663e+03 0.0047 0.0 9.0
22  1 1 2   0   0  1.912042e+03 -1.088176e+03  5.546470e+02  2.268847e+03 0.0 0.0 9.0
#pdf 21 1 2.953558e-01 4.982611e-01 5000.0 3.816562e-02 2.887017e-03
</event>
<event>
4 7 1.0 5000.0 7.905138e-03 7.739137e-02
21 -1 0 0 103 101  0.000000e+00  0.000000e+00  2.544984e+03  2.544984e+03 0.0 0.0 9.0
 1 -1 0 0 101   0  0.000000e+00  0.000000e+00 -2.194163e+03  2.194163e+03 0.0 0.0 9.0
 1  1 1 2 103   0  7.352854e+02  3.458346e+02  2.400493e+03  2.534288e+03 0.0047 0.0 9.0
22  1 1 2   0   0 -7.352854e+02 -3.458346e+02 -2.049673e+03  2.204859e+03 0.0 0.0 9.0
#pdf 21 1 3.915359e-01 3.375636e-01 5000.0 1.165598e-02 2.273233e-02
</event>
<event>
4 7 1.0 5000.0 7.905138e-03 7.739137e-02
 1 -1 0 0 101   0  0.000000e+00  0.000000e+00  2.634925e+03  2.634925e+03 0.0 0.0 9.0
21 -1 0 0 103 101  0.000000e+00  0.000000e+00 -2.290369e+03  2.290369e+03 0.0 0.0 9.0
 1  1 1 2 103   0  7.387646e+02 -4.536535e+02  2.476483e+03  2.623841e+03 0.0047 0.0 9.0
22  1 1 2   0   0 -7.387646e+02  4.536535e+02 -2.131927e+03  2.301453e+03 0.0 0.0 9.0
#pdf 1 21 4.053731e-01 3.523644e-01 5000.0 4.111822e-02 6.328738e-02
</event>
<event>
4 7 1.0 5000.0 7.905138e-03 7.739137e-02
21 -1 0 0 103 101  0.000000e+00  0.000000e+00  1.776725e+03  1.776725e+03 0.0 0.0 9.0
 1 -1 0 0 101   0  0.000000e+00  0.000000e+00 -3.584716e+03  3.584716e+03 0.0 0.0 9.0
22  1 1 2   0   0 -6.787714e+01  2.421874e+03 -1.654327e+03  2.933748e+03 0.0 0.0 9.0
 1  1 1 2 103   0  6.787714e+01 -2.421874e+03 -1.536633e+02  2.427693e+03 0.0047 0.0 9.0
#pdf 21 1 2.733423e-01 5.514947e-01 5000.0 4.995064e-02 1.351334e-03
</event>
<event>
4 7 1.0 5000.0 7.905138e-03 7.739137e-02
 1 -1 0 0 101   0  0.000000e+00  0.000000e+00  3.288420e+03  3.288420e+03 0.0 0.0 9.0
21 -1 0 0 103 101  0.000000e+00  0.000000e+00 -1.882808e+03  1.882808e+03 0.0 0.0 9.0
 1  1 1 2 103   0  1.446596e+03  3.779750e+02 -1.363968e+03  2.023836e+03 0.0047 0.0 9.0
22  1 1 2   0   0 -1.446596e+03 -3.779750e+02  2.769580e+03  3.147392e+03 0.0 0.0 9.0
#pdf 1 21 5.059108e-01 2.896628e-01 5000.0 1.546196e-02 9.936379e-02
</event>
<event>
4 7 1.0 5000.0 7.905138e-03 7.739137e-02
21 -1 0 0 103 101  0.000000e+00  0.000000e+00  1.711678e+03  1.711678e+03 0.0 0.0 9.0
 1 -1 0 0 101   0  0.000000e+00  0.000000e+00 -2.923331e+03  2.923331e+03 0.0 0.0 9.0
22  1 1 2   0   0  2.086854e+02 -1.483409e+03 -2.326924e+03  2.767422e+03 0.0 0.0 9.0
 1  1 1 2 103   0 -2.086854e+02  1.483409e+03  1.115271e+03  1.867587e+03 0.0047 0.0 9.0
#pdf 21 1 2.633352e-01 4.497432e-01 5000.0 5.650823e-02 5.535511e-03
</event>
<event>
4 7 1.0 5000.0 7.905138e-03 7.739137e-02
21 -1 0 0 103 101  0.000000e+00  0.000000e+00  2.874411e+03  2.874411e+03 0.0 0.0 9.0
 1 -1 0 0 101   0  0.000000e+00  0.000000e+00 -2.225286e+03  2.225286e+03 0.0 0.0 9.0
22  1 1 2   0   0  1.055878e+03 -1.201434e+03 -1.650601e+03  2.298435e+03 0.0 0.0 9.0
 1  1 1 2 103   0 -1.055878e+03  1.201434e+03  2.299726e+03  2.801261e+03 0.0047 0.0 9.0
#pdf 21 1 4.422171e-01 3.423516e-01 5000.0 6.110590e-03 2.143719e-02
</event>
<event>
4 7 1.0 5000.0 7.905138e-03 7.739137e-02
21 -1 0 0 103 101  0.000000e+00  0.000000e+00  3.136735e+03  3.136735e+03 0.0 0.0 9.0
 1 -1 0 0 101   0  0.000000e+00  0.000000e+00 -1.904708e+03  1.904708e+03 0.0 0.0 9.0
 1  1 1 2 103   0  1.771202e+03  6.443028e+02 -9.890202e+02  2.128484e+03 0.0047 0.0 9.0
22  1 1 2   0   0 -1.771202e+03 -6.443028e+02  2.221047e+03  2.912959e+03 0.0 0.0 9.0
#pdf 21 1 4.825745e-01 2.930320e-01 5000.0 3.575212e-03 3.926724e-02
</event>
<event>
4 7 1.0 5000.0 7.905138e-03 7.739137e-02
21 -1 0 0 103 101  0.000000e+00  0.000000e+00  2.421699e+03  2.421699e+03 0.0 0.0 9.0
 1 -1 0 0 101   0  0.000000e+00  0.000000e+00 -2.445808e+03  2.445808e+03 0.0 0.0 9.0
22  1 1 2   0   0 -1.064616e+03 -2.129355e+03 -5.174823e+02  2.436257e+03 0.0 0.0 9.0
 1  1 1 2 103   0  1.064616e+03  2.129355e+03  4.933733e+02  2.431250e+03 0.0047 0.0 9.0
#pdf 21 1 3.725690e-01 3.762781e-01 5000.0 1.476383e-02 1.411141e-02
</event>
<event>
4 7 1.0 5000.0 7.905138e-03 7.739137e-02
 1 -1 0 0 101   0  0.000000e+00  0.000000e+00  2.680115e+03  2.680115e+03 0.0 0.0 9.0
21 -1 0 0 103 101  0.000000e+00  0.000000e+00 -2.245595e+03  2.245595e+03 0.0 0.0 9.0
22  1 1 2   0   0 -2.304639e+03 -7.779531e+02 -1.031806e+02  2.434588e+03 0.0 0.0 9.0
 1  1 1 2 103   0  2.304639e+03  7.779531e+02  5.377003e+02  2.491123e+03 0.0047 0.0 9.0
#pdf 1 21 4.123254e-01 3.454762e-01 5000.0 3.870498e-02 6.670018e-02
</event>
<event>
4 7 1.0 5000.0 7.905138e-03 7.739137e-02
 1 -1 0 0 101   0  0.000000e+00  0.000000e+00  3.277292e+03  3.277292e+03 0.0 0.0 9.0
21 -1 0 0 103 101  0.000000e+00  0.000000e+00 -1.890518e+03  1.890518e+03 0.0 0.0 9.0
22  1 1 2   0   0  2.102109e+03 -1.116028e+03  1.450114e+03  2.786972e+03 0.0 0.0 9.0
 1  1 1 2 103   0 -2.102109e+03  1.116028e+03 -6.333984e+01  2.380838e+03 0.0047 0.0 9.0
#pdf 1 21 5.041988e-01 2.908489e-01 5000.0 1.575407e-02 9.857302e-02
</event>
<event>
4 7 1.0 5000.0 7.905138e-03 7.739137e-02
21 -1 0 0 103 101  0.000000e+00  0.000000e+00  2.882802e+03  2.882802e+03 0.0 0.0 9.0
 1 -1 0 0 101   0  0.000000e+00  0.000000e+00 -2.163422e+03  2.163422e+03 0.0 0.0 9.0
22  1 1 2   0   0  1.277022e+03  1.605625e+03 -1.079049e+03  2.318008e+03 0.0 0.0 9.0
 1  1 1 2 103   0 -1.277022e+03 -1.605625e+03  1.798429e+03  2.728216e+03 0.0047 0.0 9.0
#pdf 21 1 4.435080e-01 3.328341e-01 5000.0 6.006892e-03 2.409445e-02
</event>
<event>
4 7 1.0 5000.0 7.905138e-03 7.739137e-02
21 -1 0 0 103 101  0.000000e+00  0.000000e+00  1.584944e+03  1.584944e+03 0.0 0.0 9.0
 1 -1 0 0 101   0  0.000000e+00  0.000000e+00 -3.339813e+03  3.339813e+03 0.0 0.0 9.0
 1  1 1 2 103   0 -1.949139e+03 -5.178860e+02 -2.062504e+03  2.884662e+03 0.0047 0.0 9.0
22  1 1 2   0   0  1.949139e+03  5.178860e+02  3.076350e+02  2.040095e+03 0.0 0.0 9.0
#pdf 21 1 2.438375e-01 5.138174e-01 5000.0 7.203062e-02 2.326096e-03
</event>
<event>
4 7 1.0 5000.0 7.905138e-03 7.739137e-02
21 -1 0 0 103 101  0.000000e+00  0.000000e+00  2.663132e+03  2.663132e+03 0.0 0.0 9.0
 1 -1 0 0 101   0  0.000000e+00  0.000000e+00 -2.384391e+03  2.384391e+03 0.0 0.0 9.0
 1  1 1 2 103   0 -1.092004e+03 -9.300924e+02 -1.935608e+03  2.409174e+03 0.0047 0.0 9.0
22  1 1 2   0   0  1.092004e+03  9.300924e+02  2.214349e+03  2.638349e+03 0.0 0.0 9.0
#pdf 21 1 4.097127e-01 3.668294e-01 5000.0 9.267639e-03 1.585452e-02
</event>
<event>
4 7 1.0 5000.0 7.905138e-03 7.739137e-02
21 -1 0 0 103 101  0.000000e+00  0.000000e+00  2.451021e+03  2.451021e+03 0.0 0.0 9.0
 1 -1 0 0 101   0  0.000000e+00  0.000000e+00 -2.379851e+03  2.379851e+03 0.0 0.0 9.0
 1  1 1 2 103   0  4.668686e+01 -1.799384e+03 -1.574901e+03  2.391710e+03 0.0047 0.0 9.0
22  1 1 2   0   0 -4.668686e+01  1.799384e+03  1.646070e+03  2.439162e+03 0.0 0.0 9.0
#pdf 21 1 3.770801e-01 3.661309e-01 5000.0 1.397274e-02 1.599392e-02
</event>
<event>
4 7 1.0 5000.0 7.905138e-03 7.739137e-02
21 -1 0 0 103 101  0.000000e+00  0.000000e+00  2.967550e+03  2.967550e+03 0.0 0.0 9.0
 1 -1 0 0 101   0  0.000000e+00  0.000000e+00 -1.992216e+03  1.992216e+03 0.0 0.0 9.0
22  1 1 2   0   0  1.500757e+03 -2.871789e+00  2.438805e+03  2.863573e+03 0.0 0.0 9.0
 1  1 1 2 103   0 -1.500757e+03  2.871789e+00 -1.463470e+03  2.096193e+03 0.0047 0.0 9.0
#pdf 21 1 4.565462e-01 3.064947e-01 5000.0 5.063211e-03 3.330035e-02
</event>
<event>
4 7 1.0 5000.0 7.905138e-03 7.739137e-02
21 -1 0 0 103 101  0.000000e+00  0.000000e+00  3.661308e+03  3.661308e+03 0.0 0.0 9.0
 1 -1 0 0 101   0  0.000000e+00  0.000000e+00 -1.740398e+03  1.740398e+03 0.0 0.0 9.0
 1  1 1 2 103   0  1.965171e+02 -1.766143e+03  2.878676e+03  3.382995e+03 0.0047 0.0 9.0
22  1 1 2   0   0 -1.965171e+02  1.766143e+03 -9.577657e+02  2.018711e+03 0.0 0.0 9.0
#pdf 21 1 5.632782e-01 2.677535e-01 5000.0 1.135893e-03 5.350525e-02
</event>
<event>
4 7 1.0 5000.0 7.905138e-03 7.739137e-02
21 -1 0 0 103 101  0.000000e+00  0.000000e+00  3.261359e+03  3.261359e+03 0.0 0.0 9.0
 1 -1 0 0 101   0  0.000000e+00  0.000000e+00 -2.025163e+03  2.025163e+03 0.0 0.0 9.0
 1  1 1 2 103   0 -1.769297e+03 -1.199885e+02 -1.295044e+03  2.195893e+03 0.0047 0.0 9.0
22  1 1 2   0   0  1.769297e+03  1.199885e+02  2.531240e+03  3.090628e+03 0.0 0.0 9.0
#pdf 21 1 5.017475e-01 3.115635e-01 5000.0 2.750924e-03 3.128491e-02
</event>
<event>
4 7 1.0 5000.0 7.905138e-03 7.739137e-02
 1 -1 0 0 101   0  0.000000e+00  0.000000e+00  2.763569e+03  2.763569e+03 0.0 0.0 9.0
21 -1 0 0 103 101  0.000000e+00  0.000000e+00 -2.177127e+03  2.177127e+03 0.0 0.0 9.0
 1  1 1 2 103   0 -5.385799e+02  8.436856e+02  2.548532e+03  2.738045e+03 0.0047 0.0 9.0
22  1 1 2   0   0  5.385799e+02 -8.436856e+02 -1.962090e+03  2.202651e+03 0.0 0.0 9.0
#pdf 1 21 4.251645e-01 3.349426e-01 5000.0 3.452567e-02 7.216442e-02
</event>
<event>
4 7 1.0 5000.0 7.905138e-03 7.739137e-02
 1 -1 0 0 101   0  0.000000e+00  0.000000e+00  2.443296e+03  2.443296e+03 0.0 0.0 9.0
21 -1 0 0 103 101  0.000000e+00  0.000000e+00 -2.603173e+03  2.603173e+03 0.0 0.0 9.0
 1  1 1 2 103   0  5.336044e+02 -2.404592e+03  4.621153e+02  2.506062e+03 0.0047 0.0 9.0
22  1 1 2   0   0 -5.336044e+02  2.404592e+03 -6.219926e+02  2.540408e+03 0.0 0.0 9.0
#pdf 1 21 3.758917e-01 4.004882e-01 5000.0 5.259374e-02 4.287966e-02
</event>
<event>
4 7 1.0 5000.0 7.905138e-03 7.739137e-02
 1 -1 0 0 101   0  0.000000e+00  0.000000e+00  3.072127e+03  3.072127e+03 0.0 0.0 9.0
21 -1 0 0 103 101  0.000000e+00  0.000000e+00 -2.054037e+03  2.054037e+03 0.0 0.0 9.0
 1  1 1 2 103   0  2.438922e+03 -5.954121e+02  4.212387e+02  2.545643e+03 0.0047 0.0 9.0
22  1 1 2   0   0 -2.438922e+03  5.954121e+02  5.968515e+02  2.580521e+03 0.0 0.0 9.0
#pdf 1 21 4.726350e-01 3.160057e-01 5000.0 2.194551e-02 8.279228e-02
</event>
<event>
4 7 1.0 5000.0 7.905138e-03 7.739137e-02
 1 -1 0 0 101   0  0.000000e+00  0.000000e+00  2.299132e+03  2.299132e+03 0.0 0.0 9.0
21 -1 0 0 103 101  0.000000e+00  0.000000e+00 -2.739371e+03  2.739371e+03 0.0 0.0 9.0
 1  1 1 2 103   0  1.108939e+03 -1.469121e+03 -1.932574e+03  2.668877e+03 0.0047 0.0 9.0
22  1 1 2   0   0 -1.108939e+03  1.469121e+03  1.492335e+03  2.369626e+03 0.0 0.0 9.0
#pdf 1 21 3.537126e-01 4.214417e-01 5000.0 6.263335e-02 3.570111e-02
</event>
<event>
4 7 1.0 5000.0 7.905138e-03 7.739137e-02
21 -1 0 0 103 101  0.000000e+00  0.000000e+00  4.044959e+03  4.044959e+03 0.0 0.0 9.0
 1 -1 0 0 101   0  0.000000e+00  0.000000e+00 -1.544529e+03  1.544529e+03 0.0 0.0 9.0
22  1 1 2   0   0  1.585671e+02  1.072917e+03 -1.267722e+03  1.668357e+03 0.0 0.0 9.0
 1  1 1 2 103   0 -1.585671e+02 -1.072917e+03  3.768152e+03  3.921131e+03 0.0047 0.0 9.0
#pdf 21 1 6.223013e-01 2.376198e-01 5000.0 4.460219e-04 7.789635e-02
</event>
<event>
4 7 1.0 5000.0 7.905138e-03 7.739137e-02
 1 -1 0 0 101   0  0.000000e+00  0.000000e+00  3.463091e+03  3.463091e+03 0.0 0.0 9.0
21 -1 0 0 103 101  0.000000e+00  0.000000e+00 -1.810589e+03  1.810589e+03 0.0 0.0 9.0
22  1 1 2   0   0 -1.444541e+03 -4.208277e+02 -1.281509e+03  1.976375e+03 0.0 0.0 9.0
 1  1 1 2 103   0  1.444541e+03  4.208277e+02  2.934011e+03  3.297304e+03 0.0047 0.0 9.0
#pdf 1 21 5.327832e-01 2.785521e-01 5000.0 1.140143e-02 1.069870e-01
</event>
<event>
4 7 1.0 5000.0 7.905138e-03 7.739137e-02
 1 -1 0 0 101   0  0.000000e+00  0.000000e+00  1.662108e+03  1.662108e+03 0.0 0.0 9.0
21 -1 0 0 103 101  0.000000e+00  0.000000e+00 -3.891706e+03  3.891706e+03 0.0 0.0 9.0
 1  1 1 2 103   0  2.421385e+03 -4.448233e+02 -1.811754e+03  3.056702e+03 0.0047 0.0 9.0
22  1 1 2   0   0 -2.421385e+03  4.448233e+02 -4.178446e+02  2.497112e+03 0.0 0.0 9.0
#pdf 1 21 2.557089e-01 5.987240e-01 5000.0 1.239466e-01 4.878144e-03
</event>
<event>
4 7 1.0 5000.0 7.905138e-03 7.739137e-02
21 -1 0 0 103 101  0.000000e+00  0.000000e+00  2.973275e+03  2.973275e+03 0.0 0.0 9.0
 1 -1 0 0 101   0  0.000000e+00  0.000000e+00 -2.028230e+03  2.028230e+03 0.0 0.0 9.0
 1  1 1 2 103   0  5.481223e+02  1.921125e+02 -1.957277e+03  2.041637e+03 0.0047 0.0 9.0
22  1 1 2   0   0 -5.481223e+02 -1.921125e+02  2.902323e+03  2.959869e+03 0.0 0.0 9.0
#pdf 21 1 4.574270e-01 3.120354e-01 5000.0 5.004206e-03 3.110263e-02
</event>
<event>
4 7 1.0 5000.0 7.905138e-03 7.739137e-02
 1 -1 0 0 101   0  0.000000e+00  0.000000e+00  2.862671e+03  2.862671e+03 0.0 0.0 9.0
21 -1 0 0 103 101  0.000000e+00  0.000000e+00 -2.280748e+03  2.280748e+03 0.0 0.0 9.0
22  1 1 2   0   0 -1.184850e+03  7.263163e+02 -1.867103e+03  2.327548e+03 0.0 0.0 9.0
 1  1 1 2 103   0  1.184850e+03 -7.263163e+02  2.449026e+03  2.815871e+03 0.0047 0.0 9.0
#pdf 1 21 4.404109e-01 3.508843e-01 5000.0 3.002404e-02 6.401059e-02
</event>
<event>
4 7 1.0 5000.0 7.905138e-03 7.739137e-02
 1 -1 0 0 101   0  0.000000e+00  0.000000e+00  2.103203e+03  2.103203e+03 0.0 0.0 9.0
21 -1 0 0 103 101  0.000000e+00  0.000000e+00 -2.953002e+03  2.953002e+03 0.0 0.0 9.0
22  1 1 2   0   0 -1.258382e+03 -2.020458e+03  3.239864e+02  2.402237e+03 0.0 0.0 9.0
 1  1 1 2 103   0  1.258382e+03  2.020458e+03 -1.173785e+03  2.653968e+03 0.0047 0.0 9.0
#pdf 1 21 3.235697e-01 4.543080e-01 5000.0 7.842431e-02 2.630346e-02
</event>
<event>
4 7 1.0 5000.0 7.905138e-03 7.739137e-02
21 -1 0 0 103 101  0.000000e+00  0.000000e+00  3.781676e+03  3.781676e+03 0.0 0.0 9.0
 1 -1 0 0 101   0  0.000000e+00  0.000000e+00 -1.634349e+03  1.634349e+03 0.0 0.0 9.0
 1  1 1 2 103   0  7.159760e+02  2.378352e+03  1.189943e+03  2.754115e+03 0.0047 0.0 9.0
22  1 1 2   0   0 -7.159760e+02 -2.378352e+03  9.573836e+02  2.661910e+03 0.0 0.0 9.0
#pdf 21 1 5.817963e-01 2.514383e-01 5000.0 8.547653e-04 6.556228e-02
</event>
<event>
4 7 1.0 5000.0 7.905138e-03 7.739137e-02
 1 -1 0 0 101   0  0.000000e+00  0.000000e+00  2.326002e+03  2.326002e+03 0.0 0.0 9.0
21 -1 0 0 103 101  0.000000e+00  0.000000e+00 -2.629767e+03  2.629767e+03 0.0 0.0 9.0
22  1 1 2   0   0  3.745037e+02  8.255923e+02 -2.457302e+03  2.619196e+03 0.0 0.0 9.0
 1  1 1 2 103   0 -3.745037e+02 -8.255923e+02  2.153537e+03  2.336574e+03 0.0047 0.0 9.0
#pdf 1 21 3.578465e-01 4.045796e-01 5000.0 6.066130e-02 4.140064e-02
</event>
<event>
4 7 1.0 5000.0 7.905138e-03 7.739137e-02
 1 -1 0 0 101   0  0.000000e+00  0.000000e+00  2.016902e+03  2.016902e+03 0.0 0.0 9.0
21 -1 0 0 103 101  0.000000e+00  0.000000e+00 -3.117337e+03  3.117337e+03 0.0 0.0 9.0
22  1 1 2   0   0  4.126564e+02  8.260040e+02  1.836513e+03  2.055565e+03 0.0 0.0 9.0
 1  1 1 2 103   0 -4.126564e+02 -8.260040e+02 -2.936949e+03  3.078674e+03 0.0047 0.0 9.0
#pdf 1 21 3.102926e-01 4.795904e-01 5000.0 8.621127e-02 2.044296e-02
</event>
<event>
4 7 1.0 5000.0 7.905138e-03 7.739137e-02
 1 -1 0 0 101   0  0.000000e+00  0.000000e+00  2.681024e+03  2.681024e+03 0.0 0.0 9.0
21 -1 0 0 103 101  0.000000e+00  0.000000e+00 -2.618371e+03  2.618371e+03 0.0 0.0 9.0
 1  1 1 2 103   0  2.623605e+03 -1.201798e+02  3.808777e+02  2.653830e+03 0.0047 0.0 9.0
22  1 1 2   0   0 -2.623605e+03  1.201798e+02 -3.182246e+02  2.645565e+03 0.0 0.0 9.0
#pdf 1 21 4.124652e-01 4.028263e-01 5000.0 3.865754e-02 4.202977e-02
</event>
<event>
4 7 1.0 5000.0 7.905138e-03 7.739137e-02
 1 -1 0 0 101   0  0.000000e+00  0.000000e+00  2.573149e+03  2.573149e+03 0.0 0.0 9.0
21 -1 0 0 103 101  0.000000e+00  0.000000e+00 -2.424406e+03  2.424406e+03 0.0 0.0 9.0
22  1 1 2   0   0 -3.406699e+02 -1.357393e+03  2.144053e+03  2.560378e+03 0.0 0.0 9.0
 1  1 1 2 103   0  3.406699e+02  1.357393e+03 -1.995310e+03  2.437178e+03 0.0047 0.0 9.0
#pdf 1 21 3.958691e-01 3.729856e-01 5000.0 4.459536e-02 5.382939e-02
</event>
<event>
4 7 1.0 5000.0 7.905138e-03 7.739137e-02
21 -1 0 0 103 101  0.000000e+00  0.000000e+00  2.567165e+03  2.567165e+03 0.0 0.0 9.0
 1 -1 0 0 101   0  0.000000e+00  0.000000e+00 -2.392745e+03  2.392745e+03 0.0 0.0 9.0
22  1 1 2   0   0 -1.525697e+01 -1.855777e+03  1.730917e+03  2.537758e+03 0.0 0.0 9.0
 1  1 1 2 103   0  1.525697e+01  1.855777e+03 -1.556497e+03  2.422152e+03 0.0047 0.0 9.0
#pdf 21 1 3.949485e-01 3.681146e-01 5000.0 1.116659e-02 1.559960e-02
</event>
<event>
4 7 1.0 5000.0 7.905138e-03 7.739137e-02
 1 -1 0 0 101   0  0.000000e+00  0.000000e+00  1.592327e+03  1.592327e+03 0.0 0.0 9.0
21 -1 0 0 103 101  0.000000e+00  0.000000e+00 -3.599383e+03  3.599383e+03 0.0 0.0 9.0
22  1 1 2   0   0 -1.276041e+03  1.080519e+03  8.542688e+02  1.877652e+03 0.0 0.0 9.0
 1  1 1 2 103   0  1.276041e+03 -1.080519e+03 -2.861324e+03  3.314058e+03 0.0047 0.0 9.0
#pdf 1 21 2.449735e-01 5.537512e-01 5000.0 1.325210e-01 8.846003e-03
</event>
<event>
4 7 1.0 5000.0 7.905138e-03 7.739137e-02
21 -1 0 0 103 101  0.000000e+00  0.000000e+00  2.352515e+03  2.352515e+03 0.0 0.0 9.0
 1 -1 0 0 101   0  0.000000e+00  0.000000e+00 -2.653344e+03  2.653344e+03 0.0 0.0 9.0
 1  1 1 2 103   0  2.015692e+03  2.136909e+02 -1.613659e+03  2.590864e+03 0.0047 0.0 9.0
22  1 1 2   0   0 -2.015692e+03 -2.136909e+02  1.312830e+03  2.414995e+03 0.0 0.0 9.0
#pdf 21 1 3.619254e-01 4.082067e-01 5000.0 1.684665e-02 9.447177e-03
</event>
<event>
4 7 1.0 5000.0 7.905138e-03 7.739137e-02
 1 -1 0 0 101   0  0.000000e+00  0.000000e+00  2.672204e+03  2.672204e+03 0.0 0.0 9.0
21 -1 0 0 103 101  0.000000e+00  0.000000e+00 -2.345361e+03  2.345361e+03 0.0 0.0 9.0
 1  1 1 2 103   0 -1.728726e+03  1.767205e+03  5.589479e+02  2.534547e+03 0.0047 0.0 9.0
22  1 1 2   0   0  1.728726e+03 -1.767205e+03 -2.321052e+02  2.483018e+03 0.0 0.0 9.0
#pdf 1 21 4.111083e-01 3.608248e-01 5000.0 3.911967e-02 5.927256e-02
</event>
<event>
4 7 1.0 5000.0 7.905138e-03 7.739137e-02
21 -1 0 0 103 101  0.000000e+00  0.000000e+00  3.725906e+03  3.725906e+03 0.0 0.0 9.0
 1 -1 0 0 101   0  0.000000e+00  0.000000e+00 -1.672645e+03  1.672645e+03 0.0 0.0 9.0
 1  1 1 2 103   0 -1.980524e+03 -1.325206e+03  1.831042e+03  3.005222e+03 0.0047 0.0 9.0
22  1 1 2   0   0  1.980524e+03  1.325206e+03  2.222182e+02  2.393329e+03 0.0 0.0 9.0
#pdf 21 1 5.732163e-01 2.573301e-01 5000.0 9.754028e-04 6.091304e-02
</event>
<event>
4 7 1.0 5000.0 7.905138e-03 7.739137e-02
21 -1 0 0 103 101  0.000000e+00  0.000000e+00  3.288744e+03  3.288744e+03 0.0 0.0 9.0
 1 -1 0 0 101   0  0.000000e+00  0.000000e+00 -1.965472e+03  1.965472e+03 0.0 0.0 9.0
22  1 1 2   0   0 -7.326896e+02  2.272247e+03 -2.415451e+02  2.399643e+03 0.0 0.0 9.0
 1  1 1 2 103   0  7.326896e+02 -2.272247e+03  1.564817e+03  2.854574e+03 0.0047 0.0 9.0
#pdf 21 1 5.059607e-01 3.023803e-01 5000.0 2.594961e-03 3.499942e-02
</event>
<event>
4 7 1.0 5000.0 7.905138e-03 7.739137e-02
21 -1 0 0 103 101  0.000000e+00  0.000000e+00  3.300297e+03  3.300297e+03 0.0 0.0 9.0
 1 -1 0 0 101   0  0.000000e+00  0.000000e+00 -1.831719e+03  1.831719e+03 0.0 0.0 9.0
22  1 1 2   0   0  1.097934e+03  2.295196e+02 -1.549140e+03  1.912582e+03 0.0 0.0 9.0
 1  1 1 2 103   0 -1.097934e+03 -2.295196e+02  3.017718e+03  3.219434e+03 0.0047 0.0 9.0
#pdf 21 1 5.077381e-01 2.818030e-01 5000.0 2.531778e-03 4.501266e-02
</event>
<event>
4 7 1.0 5000.0 7.905138e-03 7.739137e-02
21 -1 0 0 103 101  0.000000e+00  0.000000e+00  3.538035e+03  3.538035e+03 0.0 0.0 9.0
 1 -1 0 0 101   0  0.000000e+00  0.000000e+00 -1.752437e+03  1.752437e+03 0.0 0.0 9.0
22  1 1 2   0   0  2.200298e+03 -2.545600e+02  2.101284e+03  3.053115e+03 0.0 0.0 9.0
 1  1 1 2 103   0 -2.200298e+03  2.545600e+02 -3.156868e+02  2.237358e+03 0.0047 0.0 9.0
#pdf 21 1 5.443131e-01 2.696058e-01 5000.0 1.503032e-03 5.229856e-02
</event>
<event>
4 7 1.0 5000.0 7.905138e-03 7.739137e-02
21 -1 0 0 103 101  0.000000e+00  0.000000e+00  2.438926e+03  2.438926e+03 0.0 0.0 9.0
 1 -1 0 0 101   0  0.000000e+00  0.000000e+00 -2.495947e+03  2.495947e+03 0.0 0.0 9.0
22  1 1 2   0   0 -1.774531e+03 -1.152157e+03  1.240827e+03  2.452770e+03 0.0 0.0 9.0
 1  1 1 2 103   0  1.774531e+03  1.152157e+03 -1.297848e+03  2.482103e+03 0.0047 0.0 9.0
#pdf 21 1 3.752194e-01 3.839918e-01 5000.0 1.429583e-02 1.281844e-02
</event>
<event>
4 7 1.0 5000.0 7.905138e-03 7.739137e-02
21 -1 0 0 103 101  0.000000e+00  0.000000e+00  2.511642e+03  2.511642e+03 0.0 0.0 9.0
 1 -1 0 0 101   0  0.000000e+00  0.000000e+00 -2.515387e+03  2.515387e+03 0.0 0.0 9.0
 1  1 1 2 103   0  1.358456e+03 -1.898816e+03 -9.329195e+02  2.514208e+03 0.0047 0.0 9.0
22  1 1 2   0   0 -1.358456e+03  1.898816e+03  9.291743e+02  2.512821e+03 0.0 0.0 9.0
#pdf 21 1 3.864065e-01 3.869827e-01 5000.0 1.243439e-02 1.234436e-02
</event>
<event>
4 7 1.0 5000.0 7.905138e-03 7.739137e-02
 1 -1 0 0 101   0  0.000000e+00  0.000000e+00  1.681870e+03  1.681870e+03 0.0 0.0 9.0
21 -1 0 0 103 101  0.000000e+00  0.000000e+00 -3.695028e+03  3.695028e+03 0.0 0.0 9.0
 1  1 1 2 103   0  1.441602e+03 -3.363472e+02 -3.169712e+03  3.498345e+03 0.0047 0.0 9.0
22  1 1 2   0   0 -1.441602e+03  3.363472e+02  1.156554e+03  1.878553e+03 0.0 0.0 9.0
#pdf 1 21 2.587493e-01 5.684658e-01 5000.0 1.215880e-01 7.342582e-03
</event>
<event>
4 7 1.0 5000.0 7.905138e-03 7.739137e-02
 1 -1 0 0 101   0  0.000000e+00  0.000000e+00  1.730865e+03  1.730865e+03 0.0 0.0 9.0
21 -1 0 0 103 101  0.000000e+00  0.000000e+00 -3.688734e+03  3.688734e+03 0.0 0.0 9.0
22  1 1 2   0   0  1.933690e+03 -2.778822e+02  7.397323e+02  2.088918e+03 0.0 0.0 9.0
 1  1 1 2 103   0 -1.933690e+03  2.778822e+02 -2.697602e+03  3.330681e+03 0.0047 0.0 9.0
#pdf 1 21 2.662869e-01 5.674976e-01 5000.0 1.158809e-01 7.435841e-03
</event>
<event>
4 7 1.0 5000.0 7.905138e-03 7.739137e-02
 1 -1 0 0 101   0  0.000000e+00  0.000000e+00  3.698947e+03  3.698947e+03 0.0 0.0 9.0
21 -1 0 0 103 101  0.000000e+00  0.000000e+00 -1.627791e+03  1.627791e+03 0.0 0.0 9.0
 1  1 1 2 103   0 -8.278938e+02 -9.146164e+02  3.337866e+03  3.558551e+03 0.0047 0.0 9.0
22  1 1 2   0   0  8.278938e+02  9.146164e+02 -1.266710e+03  1.768187e+03 0.0 0.0 9.0
#pdf 1 21 5.690688e-01 2.504294e-01 5000.0 7.285000e-03 1.281166e-01
</event>
<event>
4 7 1.0 5000.0 7.905138e-03 7.739137e-02
21 -1 0 0 103 101  0.000000e+00  0.000000e+00  2.005453e+03  2.005453e+03 0.0 0.0 9.0
 1 -1 0 0 101   0  0.000000e+00  0.000000e+00 -3.064193e+03  3.064193e+03 0.0 0.0 9.0
22  1 1 2   0   0  1.664265e+03  1.790447e+03 -9.505050e+02  2.622772e+03 0.0 0.0 9.0
 1  1 1 2 103   0 -1.664265e+03 -1.790447e+03 -1.082351e+02  2.446874e+03 0.0047 0.0 9.0
#pdf 21 1 3.085312e-01 4.714143e-01 5000.0 3.247878e-02 4.155622e-03
</event>
<event>
4 7 1.0 5000.0 7.905138e-03 7.739137e-02
 1 -1 0 0 101   0  0.000000e+00  0.000000e+00  2.774933e+03  2.774933e+03 0.0 0.0 9.0
21 -1 0 0 103 101  0.000000e+00  0.000000e+00 -2.262813e+03  2.262813e+03 0.0 0.0 9.0
 1  1 1 2 103   0  1.358972e+03  5.978490e+02  2.285217e+03  2.725151e+03 0.0047 0.0 9.0
22  1 1 2   0   0 -1.358972e+03 -5.978490e+02 -1.773097e+03  2.312596e+03 0.0 0.0 9.0
#pdf 1 21 4.269128e-01 3.481251e-01 5000.0 3.398376e-02 6.537343e-02
</event>
<event>
4 7 1.0 5000.0 7.905138e-03 7.739137e-02
 1 -1 0 0 101   0  0.000000e+00  0.000000e+00  2.940908e+03  2.940908e+03 0.0 0.0 9.0
21 -1 0 0 103 101  0.000000e+00  0.000000e+00 -2.115290e+03  2.115290e+03 0.0 0.0 9.0
 1  1 1 2 103   0 -4.369239e+02 -2.071138e+03  1.749983e+03  2.746444e+03 0.0047 0.0 9.0
22  1 1 2   0   0  4.369239e+02  2.071138e+03 -9.243656e+02  2.309754e+03 0.0 0.0 9.0
#pdf 1 21 4.524474e-01 3.254293e-01 5000.0 2.678001e-02 7.737524e-02
</event>
<event>
4 7 1.0 5000.0 7.905138e-03 7.739137e-02
21 -1 0 0 103 101  0.000000e+00  0.000000e+00  2.996283e+03  2.996283e+03 0.0 0.0 9.0
 1 -1 0 0 101   0  0.000000e+00  0.000000e+00 -2.068916e+03  2.068916e+03 0.0 0.0 9.0
22  1 1 2   0   0  7.501952e+02 -1.035124e+03  2.636954e+03  2.930495e+03 0.0 0.0 9.0
 1  1 1 2 103   0 -7.501952e+02  1.035124e+03 -1.709587e+03  2.134704e+03 0.0047 0.0 9.0
#pdf 21 1 4.609667e-01 3.182948e-01 5000.0 4.773676e-03 2.878853e-02
</event>
<event>
4 7 1.0 5000.0 7.905138e-03 7.739137e-02
 1 -1 0 0 101   0  0.000000e+00  0.000000e+00  2.293321e+03  2.293321e+03 0.0 0.0 9.0
21 -1 0 0 103 101  0.000000e+00  0.000000e+00 -2.739694e+03  2.739694e+03 0.0 0.0 9.0
 1  1 1 2 103   0 -9.874458e+02 -1.612850e+03 -1.874890e+03  2.662996e+03 0.0047 0.0 9.0
22  1 1 2   0   0  9.874458e+02  1.612850e+03  1.428517e+03  2.370020e+03 0.0 0.0 9.0
#pdf 1 21 3.528187e-01 4.214914e-01 5000.0 6.306653e-02 3.568522e-02
</event>
<event>
4 7 1.0 5000.0 7.905138e-03 7.739137e-02
 1 -1 0 0 101   0  0.000000e+00  0.000000e+00  2.084208e+03  2.084208e+03 0.0 0.0 9.0
21 -1 0 0 103 101  0.000000e+00  0.000000e+00 -3.048942e+03  3.048942e+03 0.0 0.0 9.0
22  1 1 2   0   0 -5.120312e+02 -1.747906e+03 -2.256764e+03  2.900058e+03 0.0 0.0 9.0
 1  1 1 2 103   0  5.120312e+02  1.747906e+03  1.292030e+03  2.233091e+03 0.0047 0.0 9.0
#pdf 1 21 3.206473e-01 4.690679e-01 5000.0 8.009260e-02 2.274703e-02
</event>
<event>
4 7 1.0 5000.0 7.905138e-03 7.739137e-02
21 -1 0 0 103 101  0.000000e+00  0.000000e+00  2.471126e+03  2.471126e+03 0.0 0.0 9.0
 1 -1 0 0 101   0  0.000000e+00  0.000000e+00 -2.539102e+03  2.539102e+03 0.0 0.0 9.0
 1  1 1 2 103   0 -5.418083e+02  2.170796e+03  1.092405e+03  2.489832e+03 0.0047 0.0 9.0
22  1 1 2   0   0  5.418083e+02 -2.170796e+03 -1.160382e+03  2.520396e+03 0.0 0.0 9.0
#pdf 21 1 3.801732e-01 3.906311e-01 5000.0 1.344673e-02 1.178944e-02
</event>
<event>
4 7 1.0 5000.0 7.905138e-03 7.739137e-02
21 -1 0 0 103 101  0.000000e+00  0.000000e+00  2.172278e+03  2.172278e+03 0.0 0.0 9.0
 1 -1 0 0 101   0  0.000000e+00  0.000000e+00 -2.884134e+03  2.884134e+03 0.0 0.0 9.0
22  1 1 2   0   0 -5.135056e+02 -1.526920e+02 -2.825547e+03  2.875886e+03 0.0 0.0 9.0
 1  1 1 2 103   0  5.135056e+02  1.526920e+02  2.113692e+03  2.180526e+03 0.0047 0.0 9.0
#pdf 21 1 3.341967e-01 4.437129e-01 5000.0 2.369450e-02 5.990490e-03
</event>
<event>
4 7 1.0 5000.0 7.905138e-03 7.739137e-02
21 -1 0 0 103 101  0.000000e+00  0.000000e+00  3.317436e+03  3.317436e+03 0.0 0.0 9.0
 1 -1 0 0 101   0  0.000000e+00  0.000000e+00 -1.896856e+03  1.896856e+03 0.0 0.0 9.0
22  1 1 2   0   0  1.735378e+03 -1.657189e+03  1.470401e+03  2.814230e+03 0.0 0.0 9.0
 1  1 1 2 103   0 -1.735378e+03  1.657189e+03 -4.982112e+01  2.400062e+03 0.0047 0.0 9.0
#pdf 21 1 5.103747e-01 2.918240e-01 5000.0 2.440677e-03 3.984844e-02
</event>
<event>
4 7 1.0 5000.0 7.905138e-03 7.739137e-02
21 -1 0 0 103 101  0.000000e+00  0.000000e+00  2.084379e+03  2.084379e+03 0.0 0.0 9.0
 1 -1 0 0 101   0  0.000000e+00  0.000000e+00 -3.023579e+03  3.023579e+03 0.0 0.0 9.0
22  1 1 2   0   0 -2.160484e+03  1.093177e+03 -1.144092e+03  2.677998e+03 0.0 0.0 9.0
 1  1 1 2 103   0  2.160484e+03 -1.093177e+03  2.048914e+02  2.429960e+03 0.0047 0.0 9.0
#pdf 21 1 3.206737e-01 4.651660e-01 5000.0 2.796120e-02 4.515556e-03
</event>
<event>
4 7 1.0 5000.0 7.905138e-03 7.739137e-02
 1 -1 0 0 101   0  0.000000e+00  0.000000e+00  3.023774e+03  3.023774e+03 0.0 0.0 9.0
21 -1 0 0 103 101  0.000000e+00  0.000000e+00 -2.103790e+03  2.103790e+03 0.0 0.0 9.0
 1  1 1 2 103   0 -2.084357e+03 -9.548943e+02  1.528530e+03  2.755498e+03 0.0047 0.0 9.0
22  1 1 2   0   0  2.084357e+03  9.548943e+02 -6.085461e+02  2.372066e+03 0.0 0.0 9.0
#pdf 1 21 4.651960e-01 3.236600e-01 5000.0 2.364020e-02 7.837314e-02
</event>
<event>
4 7 1.0 5000.0 7.905138e-03 7.739137e-02
21 -1 0 0 103 101  0.000000e+00  0.000000e+00  2.678597e+03  2.678597e+03 0.0 0.0 9.0
 1 -1 0 0 101   0  0.000000e+00  0.000000e+00 -2.406846e+03  2.406846e+03 0.0 0.0 9.0
22  1 1 2   0   0 -1.647076e+03  1.682909e+03 -8.151837e+02  2.491900e+03 0.0 0.0 9.0
 1  1 1 2 103   0  1.647076e+03 -1.682909e+03  1.086934e+03  2.593543e+03 0.0047 0.0 9.0
#pdf 21 1 4.120919e-01 3.702841e-01 5000.0 8.991176e-03 1.518211e-02
</event>
<event>
4 7 1.0 5000.0 7.905138e-03 7.739137e-02
 1 -1 0 0 101   0  0.000000e+00  0.000000e+00  3.407707e+03  3.407707e+03 0.0 0.0 9.0
21 -1 0 0 103 101  0.000000e+00  0.000000e+00 -1.825402e+03  1.825402e+03 0.0 0.0 9.0
22  1 1 2   0   0 -1.097948e+03  9.918460e+02  2.897528e+03  3.253447e+03 0.0 0.0 9.0
 1  1 1 2 103   0  1.097948e+03 -9.918460e+02 -1.315223e+03  1.979661e+03 0.0047 0.0 9.0
#pdf 1 21 5.242626e-01 2.808310e-01 5000.0 1.258631e-02 1.053897e-01
</event>
<event>
4 7 1.0 5000.0 7.905138e-03 7.739137e-02
21 -1 0 0 103 101  0.000000e+00  0.000000e+00  2.231825e+03  2.231825e+03 0.0 0.0 9.0
 1 -1 0 0 101   0  0.000000e+00  0.000000e+00 -2.551612e+03  2.551612e+03 0.0 0.0 9.0
 1  1 1 2 103   0 -3.216384e+02 -1.315606e+03 -2.129110e+03  2.523367e+03 0.0047 0.0 9.0
22  1 1 2   0   0  3.216384e+02  1.315606e+03  1.809323e+03  2.260071e+03 0.0 0.0 9.0
#pdf 21 1 3.433577e-01 3.925557e-01 5000.0 2.117517e-02 1.150745e-02
</event>
<event>
4 7 1.0 5000.0 7.905138e-03 7.739137e-02
 1 -1 0 0 101   0  0.000000e+00  0.000000e+00  2.887556e+03  2.887556e+03 0.0 0.0 9.0
21 -1 0 0 103 101  0.000000e+00  0.000000e+00 -1.876674e+03  1.876674e+03 0.0 0.0 9.0
22  1 1 2   0   0 -1.563389e+02 -1.593712e+03  2.234376e+03  2.748963e+03 0.0 0.0 9.0
 1  1 1 2 103   0  1.563389e+02  1.593712e+03 -1.223494e+03  2.015267e+03 0.0047 0.0 9.0
#pdf 1 21 4.442394e-01 2.887191e-01 5000.0 2.895514e-02 9.999598e-02
</event>
<event>
4 7 1.0 5000.0 7.905138e-03 7.739137e-02
 1 -1 0 0 101   0  0.000000e+00  0.000000e+00  2.934641e+03  2.934641e+03 0.0 0.0 9.0
21 -1 0 0 103 101  0.000000e+00  0.000000e+00 -1.556584e+03  1.556584e+03 0.0 0.0 9.0
22  1 1 2   0   0 -1.433075e+03  1.090359e+03  1.898650e+03  2.616765e+03 0.0 0.0 9.0
 1  1 1 2 103   0  1.433075e+03 -1.090359e+03 -5.205930e+02  1.874461e+03 0.0047 0.0 9.0
#pdf 1 21 4.514833e-01 2.394745e-01 5000.0 2.702865e-02 1.370684e-01
</event>
<event>
4 7 1.0 5000.0 7.905138e-03 7.739137e-02
21 -1 0 0 103 101  0.000000e+00  0.000000e+00  2.963684e+03  2.963684e+03 0.0 0.0 9.0
 1 -1 0 0 101   0  0.000000e+00  0.000000e+00 -2.607731e+03  2.607731e+03 0.0 0.0 9.0
22  1 1 2   0   0 -2.465730e+02 -2.767767e+03  9.321519e+01  2.780292e+03 0.0 0.0 9.0
 1  1 1 2 103   0  2.465730e+02  2.767767e+03  2.627377e+02  2.791123e+03 0.0047 0.0 9.0
#pdf 21 1 4.559513e-01 4.011893e-01 5000.0 5.103387e-03 1.032410e-02
</event>
<event>
4 7 1.0 5000.0 7.905138e-03 7.739137e-02
21 -1 0 0 103 101  0.000000e+00  0.000000e+00  2.822006e+03  2.822006e+03 0.0 0.0 9.0
 1 -1 0 0 101   0  0.000000e+00  0.000000e+00 -2.296336e+03  2.296336e+03 0.0 0.0 9.0
22  1 1 2   0   0 -1.001566e+03  1.505182e+03  2.064446e+03  2.744202e+03 0.0 0.0 9.0
 1  1 1 2 103   0  1.001566e+03 -1.505182e+03 -1.538776e+03  2.374140e+03 0.0047 0.0 9.0
#pdf 21 1 4.341547e-01 3.532825e-01 5000.0 6.781437e-03 1.874198e-02
</event>
<event>
4 7 1.0 5000.0 7.905138e-03 7.739137e-02
21 -1 0 0 103 101  0.000000e+00  0.000000e+00  1.741679e+03  1.741679e+03 0.0 0.0 9.0
 1 -1 0 0 101   0  0.000000e+00  0.000000e+00 -3.582084e+03  3.582084e+03 0.0 0.0 9.0
22  1 1 2   0   0  1.796169e+03  1.979847e+02  9.174561e+02  2.026609e+03 0.0 0.0 9.0
 1  1 1 2 103   0 -1.796169e+03 -1.979847e+02 -2.757862e+03  3.297154e+03 0.0047 0.0 9.0
#pdf 21 1 2.679505e-01 5.510899e-01 5000.0 5.337547e-02 1.359445e-03
</event>
<event>
4 7 1.0 5000.0 7.905138e-03 7.739137e-02
 1 -1 0 0 101   0  0.000000e+00  0.000000e+00  2.940246e+03  2.940246e+03 0.0 0.0 9.0
21 -1 0 0 103 101  0.000000e+00  0.000000e+00 -2.086149e+03  2.086149e+03 0.0 0.0 9.0
 1  1 1 2 103   0  1.554358e+03  6.096079e+02 -1.429191e+03  2.197780e+03 0.0047 0.0 9.0
22  1 1 2   0   0 -1.554358e+03 -6.096079e+02  2.283289e+03  2.828614e+03 0.0 0.0 9.0
#pdf 1 21 4.523455e-01 3.209459e-01 5000.0 2.680623e-02 7.992105e-02
</event>
<event>
4 7 1.0 5000.0 7.905138e-03 7.739137e-02
21 -1 0 0 103 101  0.000000e+00  0.000000e+00  2.022781e+03  2.022781e+03 0.0 0.0 9.0
 1 -1 0 0 101   0  0.000000e+00  0.000000e+00 -2.826757e+03  2.826757e+03 0.0 0.0 9.0
 1  1 1 2 103   0  2.353512e+03 -4.210322e+02 -3.611659e+02  2.418001e+03 0.0047 0.0 9.0
22  1 1 2   0   0 -2.353512e+03  4.210322e+02 -4.428104e+02  2.431536e+03 0.0 0.0 9.0
#pdf 21 1 3.111970e-01 4.348857e-01 5000.0 3.142716e-02 6.718421e-03
</event>
<event>
4 7 1.0 5000.0 7.905138e-03 7.739137e-02
21 -1 0 0 103 101  0.000000e+00  0.000000e+00  4.012128e+03  4.012128e+03 0.0 0.0 9.0
 1 -1 0 0 101   0  0.000000e+00  0.000000e+00 -1.605286e+03  1.605286e+03 0.0 0.0 9.0
 1  1 1 2 103   0  1.308177e+03 -1.841377e+03  2.483896e+03  3.357341e+03 0.0047 0.0 9.0
22  1 1 2   0   0 -1.308177e+03  1.841377e+03 -7.705456e+01  2.260074e+03 0.0 0.0 9.0
#pdf 21 1 6.172505e-01 2.469671e-01 5000.0 4.849454e-04 6.925232e-02
</event>
<event>
4 7 1.0 5000.0 7.905138e-03 7.739137e-02
 1 -1 0 0 101   0  0.000000e+00  0.000000e+00  3.486382e+03  3.486382e+03 0.0 0.0 9.0
21 -1 0 0 103 101  0.000000e+00  0.000000e+00 -1.803250e+03  1.803250e+03 0.0 0.0 9.0
22  1 1 2   0   0 -1.789775e+03 -1.504151e+03 -1.142317e+02  2.340686e+03 0.0 0.0 9.0
 1  1 1 2 103   0  1.789775e+03  1.504151e+03  1.797363e+03  2.948945e+03 0.0047 0.0 9.0
#pdf 1 21 5.363664e-01 2.774231e-01 5000.0 1.092547e-02 1.077849e-01
</event>
<event>
4 7 1.0 5000.0 7.905138e-03 7.739137e-02
21 -1 0 0 103 101  0.000000e+00  0.000000e+00  2.974456e+03  2.974456e+03 0.0 0.0 9.0
 1 -1 0 0 101   0  0.000000e+00  0.000000e+00 -2.115056e+03  2.115056e+03 0.0 0.0 9.0
22  1 1 2   0   0  7.330836e+02 -2.086416e+03  1.630411e+03  2.747505e+03 0.0 0.0 9.0
 1  1 1 2 103   0 -7.330836e+02  2.086416e+03 -7.710107e+02  2.342007e+03 0.0047 0.0 9.0
#pdf 21 1 4.576086e-01 3.253932e-01 5000.0 4.992113e-03 2.639245e-02
</event>
<event>
4 7 1.0 5000.0 7.905138e-03 7.739137e-02
 1 -1 0 0 101   0  0.000000e+00  0.000000e+00  1.785662e+03  1.785662e+03 0.0 0.0 9.0
21 -1 0 0 103 101  0.000000e+00  0.000000e+00 -3.514369e+03  3.514369e+03 0.0 0.0 9.0
 1  1 1 2 103   0 -1.651697e+03 -1.766151e+03 -1.722209e+02  2.424263e+03 0.0047 0.0 9.0
22  1 1 2   0   0  1.651697e+03  1.766151e+03 -1.556485e+03  2.875768e+03 0.0 0.0 9.0
#pdf 1 21 2.747173e-01 5.406721e-01 5000.0 1.097146e-01 1.037786e-02
</event>
<event>
4 7 1.0 5000.0 7.905138e-03 7.739137e-02
21 -1 0 0 103 101  0.000000e+00  0.000000e+00  3.049146e+03  3.049146e+03 0.0 0.0 9.0
 1 -1 0 0 101   0  0.000000e+00  0.000000e+00 -2.020297e+03  2.020297e+03 0.0 0.0 9.0
22  1 1 2   0   0 -7.290018e+02 -2.120991e+03 -5.712475e+02  2.314383e+03 0.0 0.0 9.0
 1  1 1 2 103   0  7.290018e+02  2.120991e+03  1.600097e+03  2.755060e+03 0.0047 0.0 9.0
#pdf 21 1 4.690994e-01 3.108149e-01 5000.0 4.285892e-03 3.157609e-02
</event>
<event>
4 7 1.0 5000.0 7.905138e-03 7.739137e-02
 1 -1 0 0 101   0  0.000000e+00  0.000000e+00  1.714912e+03  1.714912e+03 0.0 0.0 9.0
21 -1 0 0 103 101  0.000000e+00  0.000000e+00 -3.552971e+03  3.552971e+03 0.0 0.0 9.0
 1  1 1 2 103   0  1.174592e+03  1.831334e+03 -2.163235e+03  3.068067e+03 0.0047 0.0 9.0
22  1 1 2   0   0 -1.174592e+03 -1.831334e+03  3.251764e+02  2.199816e+03 0.0 0.0 9.0
#pdf 1 21 2.638326e-01 5.466108e-01 5000.0 1.177181e-01 9.660855e-03
</event>
<event>
4 7 1.0 5000.0 7.905138e-03 7.739137e-02
 1 -1 0 0 101   0  0.000000e+00  0.000000e+00  2.800755e+03  2.800755e+03 0.0 0.0 9.0
21 -1 0 0 103 101  0.000000e+00  0.000000e+00 -1.851801e+03  1.851801e+03 0.0 0.0 9.0
22  1 1 2   0   0 -6.866537e+02  1.559850e+03 -1.068527e+03  2.011561e+03 0.0 0.0 9.0
 1  1 1 2 103   0  6.866537e+02 -1.559850e+03  2.017481e+03  2.640995e+03 0.0047 0.0 9.0
#pdf 1 21 4.308854e-01 2.848925e-01 5000.0 3.277950e-02 1.025873e-01
</event>
<event>
4 7 1.0 5000.0 7.905138e-03 7.739137e-02
21 -1 0 0 103 101  0.000000e+00  0.000000e+00  1.574043e+03  1.574043e+03 0.0 0.0 9.0
 1 -1 0 0 101   0  0.000000e+00  0.000000e+00 -3.984977e+03  3.984977e+03 0.0 0.0 9.0
22  1 1 2   0   0 -5.284580e+02  1.214136e+03  1.153786e+03  1.756308e+03 0.0 0.0 9.0
 1  1 1 2 103   0  5.284580e+02 -1.214136e+03 -3.564720e+03  3.802713e+03 0.0047 0.0 9.0
#pdf 21 1 2.421605e-01 6.130734e-01 5000.0 7.358695e-02 5.193837e-04
</event>
<event>
4 7 1.0 5000.0 7.905138e-03 7.739137e-02
21 -1 0 0 103 101  0.000000e+00  0.000000e+00  2.837454e+03  2.837454e+03 0.0 0.0 9.0
 1 -1 0 0 101   0  0.000000e+00  0.000000e+00 -2.138632e+03  2.138632e+03 0.0 0.0 9.0
22  1 1 2   0   0  1.405074e+03 -1.254274e+03  1.953017e+03  2.713247e+03 0.0 0.0 9.0
 1  1 1 2 103   0 -1.405074e+03  1.254274e+03 -1.254194e+03  2.262839e+03 0.0047 0.0 9.0
#pdf 21 1 4.365314e-01 3.290203e-01 5000.0 6.578410e-03 2.524723e-02
</event>
<event>
4 7 1.0 5000.0 7.905138e-03 7.739137e-02
 1 -1 0 0 101   0  0.000000e+00  0.000000e+00  1.685374e+03  1.685374e+03 0.0 0.0 9.0
21 -1 0 0 103 101  0.000000e+00  0.000000e+00 -3.667988e+03  3.667988e+03 0.0 0.0 9.0
22  1 1 2   0   0  6.981471e+02 -4.986242e+02  1.520980e+03  1.746258e+03 0.0 0.0 9.0
 1  1 1 2 103   0 -6.981471e+02  4.986242e+02 -3.503594e+03  3.607105e+03 0.0047 0.0 9.0
#pdf 1 21 2.592883e-01 5.643059e-01 5000.0 1.211732e-01 7.749775e-03
</event>
<event>
4 7 1.0 5000.0 7.905138e-03 7.739137e-02
21 -1 0 0 103 101  0.000000e+00  0.000000e+00  2.237897e+03  2.237897e+03 0.0 0.0 9.0
 1 -1 0 0 101   0  0.000000e+00  0.000000e+00 -2.780837e+03  2.780837e+03 0.0 0.0 9.0
 1  1 1 2 103   0 -1.255640e+03 -1.146689e+03  1.564600e+03  2.310736e+03 0.0047 0.0 9.0
22  1 1 2   0   0  1.255640e+03  1.146689e+03 -2.107540e+03  2.707998e+03 0.0 0.0 9.0
#pdf 21 1 3.442919e-01 4.278211e-01 5000.0 2.093478e-02 7.353872e-03
</event>
<event>
4 7 1.0 5000.0 7.905138e-03 7.739137e-02
21 -1 0 0 103 101  0.000000e+00  0.000000e+00  2.065406e+03  2.065406e+03 0.0 0.0 9.0
 1 -1 0 0 101   0  0.000000e+00  0.000000e+00 -3.052237e+03  3.052237e+03 0.0 0.0 9.0
 1  1 1 2 103   0 -1.264442e+03  1.844972e+03  6.691816e+02  2.334639e+03 0.0047 0.0 9.0
22  1 1 2   0   0  1.264442e+03 -1.844972e+03 -1.656013e+03  2.783005e+03 0.0 0.0 9.0
#pdf 21 1 3.177548e-01 4.695750e-01 5000.0 2.897995e-02 4.258837e-03
</event>
<event>
4 7 1.0 5000.0 7.905138e-03 7.739137e-02
21 -1 0 0 103 101  0.000000e+00  0.000000e+00  2.629649e+03  2.629649e+03 0.0 0.0 9.0
 1 -1 0 0 101   0  0.000000e+00  0.000000e+00 -2.273419e+03  2.273419e+03 0.0 0.0 9.0
22  1 1 2   0   0 -9.192683e+02 -1.099442e+03 -1.808161e+03  2.307222e+03 0.0 0.0 9.0
 1  1 1 2 103   0  9.192683e+02  1.099442e+03  2.164392e+03  2.595846e+03 0.0047 0.0 9.0
#pdf 21 1 4.045614e-01 3.497567e-01 5000.0 9.894190e-03 1.957835e-02
</event>
<event>
4 7 1.0 5000.0 7.905138e-03 7.739137e-02
21 -1 0 0 103 101  0.000000e+00  0.000000e+00  2.256919e+03  2.256919e+03 0.0 0.0 9.0
 1 -1 0 0 101   0  0.000000e+00  0.000000e+00 -2.768152e+03  2.768152e+03 0.0 0.0 9.0
 1  1 1 2 103   0 -6.167553e+02  1.079187e+03 -2.435443e+03  2.734303e+03 0.0047 0.0 9.0
22  1 1 2   0   0  6.167553e+02 -1.079187e+03  1.924210e+03  2.290768e+03 0.0 0.0 9.0
#pdf 21 1 3.472183e-01 4.258695e-01 5000.0 2.019840e-02 7.541350e-03
</event>
<event>
4 7 1.0 5000.0 7.905138e-03 7.739137e-02
 1 -1 0 0 101   0  0.000000e+00  0.000000e+00  2.461739e+03  2.461739e+03 0.0 0.0 9.0
21 -1 0 0 103 101  0.000000e+00  0.000000e+00 -2.611204e+03  2.611204e+03 0.0 0.0 9.0
22  1 1 2   0   0  1.638880e+03  8.656290e+02 -1.805472e+03  2.587464e+03 0.0 0.0 9.0
 1  1 1 2 103   0 -1.638880e+03 -8.656290e+02  1.656007e+03  2.485478e+03 0.0047 0.0 9.0
#pdf 1 21 3.787290e-01 4.017236e-01 5000.0 5.140230e-02 4.242903e-02
</event>
<event>
4 7 1.0 5000.0 7.905138e-03 7.739137e-02
21 -1 0 0 103 101  0.000000e+00  0.000000e+00  2.521089e+03  2.521089e+03 0.0 0.0 9.0
 1 -1 0 0 101   0  0.000000e+00  0.000000e+00 -2.393167e+03  2.393167e+03 0.0 0.0 9.0
22  1 1 2   0   0  3.341217e+02 -2.389359e+03 -3.974039e+02  2.445118e+03 0.0 0.0 9.0
 1  1 1 2 103   0 -3.341217e+02  2.389359e+03  5.253268e+02  2.469138e+03 0.0047 0.0 9.0
#pdf 21 1 3.878599e-01 3.681795e-01 5000.0 1.220851e-02 1.558686e-02
</event>
<event>
4 7 1.0 5000.0 7.905138e-03 7.739137e-02
 1 -1 0 0 101   0  0.000000e+00  0.000000e+00  3.111307e+03  3.111307e+03 0.0 0.0 9.0
21 -1 0 0 103 101  0.000000e+00  0.000000e+00 -2.118491e+03  2.118491e+03 0.0 0.0 9.0
22  1 1 2   0   0 -2.313752e+03  1.085805e+03  7.434975e+02  2.661806e+03 0.0 0.0 9.0
 1  1 1 2 103   0  2.313752e+03 -1.085805e+03  2.493185e+02  2.567992e+03 0.0047 0.0 9.0
#pdf 1 21 4.786626e-01 3.259217e-01 5000.0 2.063870e-02 7.709910e-02
</event>
<event>
4 7 1.0 5000.0 7.905138e-03 7.739137e-02
21 -1 0 0 103 101  0.000000e+00  0.000000e+00  1.555022e+03  1.555022e+03 0.0 0.0 9.0
 1 -1 0 0 101   0  0.000000e+00  0.000000e+00 -3.441313e+03  3.441313e+03 0.0 0.0 9.0
 1  1 1 2 103   0  1.849300e+03  1.313202e+03 -4.519194e+02  2.312713e+03 0.0047 0.0 9.0
22  1 1 2   0   0 -1.849300e+03 -1.313202e+03 -1.434371e+03  2.683622e+03 0.0 0.0 9.0
#pdf 21 1 2.392342e-01 5.294327e-01 5000.0 7.634500e-02 1.865130e-03
</event>
<event>
4 7 1.0 5000.0 7.905138e-03 7.739137e-02
21 -1 0 0 103 101  0.000000e+00  0.000000e+00  2.644528e+03  2.644528e+03 0.0 0.0 9.0
 1 -1 0 0 101   0  0.000000e+00  0.000000e+00 -2.110480e+03  2.110480e+03 0.0 0.0 9.0
22  1 1 2   0   0  1.587308e+03 -1.632064e+03 -3.679016e+02  2.306194e+03 0.0 0.0 9.0
 1  1 1 2 103   0 -1.587308e+03  1.632064e+03  9.019494e+02  2.448814e+03 0.0047 0.0 9.0
#pdf 21 1 4.068505e-01 3.246893e-01 5000.0 9.611452e-03 2.662061e-02
</event>
<event>
4 7 1.0 5000.0 7.905138e-03 7.739137e-02
 1 -1 0 0 101   0  0.000000e+00  0.000000e+00  2.506513e+03  2.506513e+03 0.0 0.0 9.0
21 -1 0 0 103 101  0.000000e+00  0.000000e+00 -2.581606e+03  2.581606e+03 0.0 0.0 9.0
 1  1 1 2 103   0  1.899763e+03  7.269770e+02 -1.565205e+03  2.566606e+03 0.0047 0.0 9.0
22  1 1 2   0   0 -1.899763e+03 -7.269770e+02  1.490112e+03  2.521514e+03 0.0 0.0 9.0
#pdf 1 21 3.856174e-01 3.971702e-01 5000.0 4.858072e-02 4.410717e-02
</event>
<event>
4 7 1.0 5000.0 7.905138e-03 7.739137e-02
21 -1 0 0 103 101  0.000000e+00  0.000000e+00  3.639250e+03  3.639250e+03 0.0 0.0 9.0
 1 -1 0 0 101   0  0.000000e+00  0.000000e+00 -1.693633e+03  1.693633e+03 0.0 0.0 9.0
 1  1 1 2 103   0  1.044511e+03 -2.607892e+02  3.375502e+03  3.543026e+03 0.0047 0.0 9.0
22  1 1 2   0   0 -1.044511e+03  2.607892e+02 -1.429886e+03  1.789857e+03 0.0 0.0 9.0
#pdf 21 1 5.598845e-01 2.605589e-01 5000.0 1.195363e-03 5.849733e-02
</event>
<event>
4 7 1.0 5000.0 7.905138e-03 7.739137e-02
21 -1 0 0 103 101  0.000000e+00  0.000000e+00  1.629915e+03  1.629915e+03 0.0 0.0 9.0
 1 -1 0 0 101   0  0.000000e+00  0.000000e+00 -3.583128e+03  3.583128e+03 0.0 0.0 9.0
22  1 1 2   0   0 -2.933515e+02  1.092481e+03 -3.279956e+03  3.469536e+03 0.0 0.0 9.0
 1  1 1 2 103   0  2.933515e+02 -1.092481e+03  1.326743e+03  1.743507e+03 0.0047 0.0 9.0
#pdf 21 1 2.507562e-01 5.512504e-01 5000.0 6.611753e-02 1.356219e-03
</event>
<event>
4 7 1.0 5000.0 7.905138e-03 7.739137e-02
 1 -1 0 0 101   0  0.000000e+00  0.000000e+00  2.759494e+03  2.759494e+03 0.0 0.0 9.0
21 -1 0 0 103 101  0.000000e+00  0.000000e+00 -2.462665e+03  2.462665e+03 0.0 0.0 9.0
 1  1 1 2 103   0  2.309704e+03 -8.714975e+02  9.873081e+02  2.658763e+03 0.0047 0.0 9.0
22  1 1 2   0   0 -2.309704e+03  8.714975e+02 -6.904786e+02  2.563397e+03 0.0 0.0 9.0
#pdf 1 21 4.245376e-01 3.788715e-01 5000.0 3.472155e-02 5.134288e-02
</event>
<event>
4 7 1.0 5000.0 7.905138e-03 7.739137e-02
 1 -1 0 0 101   0  0.000000e+00  0.000000e+00  1.962596e+03  1.962596e+03 0.0 0.0 9.0
21 -1 0 0 103 101  0.000000e+00  0.000000e+00 -3.113389e+03  3.113389e+03 0.0 0.0 9.0
22  1 1 2   0   0  1.058086e+03 -1.600790e+03 -2.175341e+03  2.900721e+03 0.0 0.0 9.0
 1  1 1 2 103   0 -1.058086e+03  1.600790e+03  1.024547e+03  2.175264e+03 0.0047 0.0 9.0
#pdf 1 21 3.019378e-01 4.789829e-01 5000.0 9.137729e-02 2.057096e-02
</event>
<event>
4 7 1.0 5000.0 7.905138e-03 7.739137e-02
21 -1 0 0 103 101  0.000000e+00  0.000000e+00  1.696027e+03  1.696027e+03 0.0 0.0 9.0
 1 -1 0 0 101   0  0.000000e+00  0.000000e+00 -3.563659e+03  3.563659e+03 0.0 0.0 9.0
 1  1 1 2 103   0 -1.559888e+03 -1.894861e+03 -1.086269e+03  2.683976e+03 0.0047 0.0 9.0
22  1 1 2   0   0  1.559888e+03  1.894861e+03 -7.813628e+02  2.575709e+03 0.0 0.0 9.0
#pdf 21 1 2.609272e-01 5.482552e-01 5000.0 5.822857e-02 1.418247e-03
</event>
<event>
4 7 1.0 5000.0 7.905138e-03 7.739137e-02
 1 -1 0 0 101   0  0.000000e+00  0.000000e+00  3.494110e+03  3.494110e+03 0.0 0.0 9.0
21 -1 0 0 103 101  0.000000e+00  0.000000e+00 -1.822164e+03  1.822164e+03 0.0 0.0 9.0
22  1 1 2   0   0 -1.692273e+03  9.566928e+02  2.530623e+03  3.191097e+03 0.0 0.0 9.0
 1  1 1 2 103   0  1.692273e+03 -9.566928e+02 -8.586769e+02  2.125176e+03 0.0047 0.0 9.0
#pdf 1 21 5.375554e-01 2.803329e-01 5000.0 1.077122e-02 1.057373e-01
</event>
<event>
4 7 1.0 5000.0 7.905138e-03 7.739137e-02
21 -1 0 0 103 101  0.000000e+00  0.000000e+00  2.830897e+03  2.830897e+03 0.0 0.0 9.0
 1 -1 0 0 101   0  0.000000e+00  0.000000e+00 -2.234909e+03  2.234909e+03 0.0 0.0 9.0
 1  1 1 2 103   0 -9.594536e+02  3.953090e+02  2.605301e+03  2.804356e+03 0.0047 0.0 9.0
22  1 1 2   0   0  9.594536e+02 -3.953090e+02 -2.009313e+03  2.261451e+03 0.0 0.0 9.0
#pdf 21 1 4.355226e-01 3.438322e-01 5000.0 6.663936e-03 2.105274e-02
</event>
<event>
4 7 1.0 5000.0 7.905138e-03 7.739137e-02
21 -1 0 0 103 101  0.000000e+00  0.000000e+00  2.330908e+03  2.330908e+03 0.0 0.0 9.0
 1 -1 0 0 101   0  0.000000e+00  0.000000e+00 -2.665028e+03  2.665028e+03 0.0 0.0 9.0
 1  1 1 2 103   0  2.443143e+03  4.824917e+02 -2.682299e+02  2.504734e+03 0.0047 0.0 9.0
22  1 1 2   0   0 -2.443143e+03 -4.824917e+02 -6.588994e+01  2.491202e+03 0.0 0.0 9.0
#pdf 21 1 3.586012e-01 4.100042e-01 5000.0 1.754661e-02 9.233288e-03
</event>
<event>
4 7 1.0 5000.0 7.905138e-03 7.739137e-02
21 -1 0 0 103 101  0.000000e+00  0.000000e+00  2.191031e+03  2.191031e+03 0.0 0.0 9.0
 1 -1 0 0 101   0  0.000000e+00  0.000000e+00 -2.972235e+03  2.972235e+03 0.0 0.0 9.0
22  1 1 2   0   0 -7.542317e+02  7.507420e+02  1.955846e+03  2.226614e+03 0.0 0.0 9.0
 1  1 1 2 103   0  7.542317e+02 -7.507420e+02 -2.737049e+03  2.936651e+03 0.0047 0.0 9.0
#pdf 21 1 3.370816e-01 4.572669e-01 5000.0 2.286749e-02 5.014889e-03
</event>
<event>
4 7 1.0 5000.0 7.905138e-03 7.739137e-02
21 -1 0 0 103 101  0.000000e+00  0.000000e+00  2.149046e+03  2.149046e+03 0.0 0.0 9.0
 1 -1 0 0 101   0  0.000000e+00  0.000000e+00 -2.935301e+03  2.935301e+03 0.0 0.0 9.0
22  1 1 2   0   0  4.638208e+02 -2.380908e+03 -1.052397e+03  2.644124e+03 0.0 0.0 9.0
 1  1 1 2 103   0 -4.638208e+02  2.380908e+03  2.661420e+02  2.440222e+03 0.0047 0.0 9.0
#pdf 21 1 3.306224e-01 4.515847e-01 5000.0 2.475681e-02 5.405271e-03
</event>
<event>
4 7 1.0 5000.0 7.905138e-03 7.739137e-02
 1 -1 0 0 101   0  0.000000e+00  0.000000e+00  3.679090e+03  3.679090e+03 0.0 0.0 9.0
21 -1 0 0 103 101  0.000000e+00  0.000000e+00 -1.592794e+03  1.592794e+03 0.0 0.0 9.0
 1  1 1 2 103   0  5.250185e+02  1.108047e+03  3.315945e+03  3.535379e+03 0.0047 0.0 9.0
22  1 1 2   0   0 -5.250185e+02 -1.108047e+03 -1.229649e+03  1.736505e+03 0.0 0.0 9.0
#pdf 1 21 5.660138e-01 2.450452e-01 5000.0 7.580576e-03 1.324624e-01
</event>
<event>
4 7 1.0 5000.0 7.905138e-03 7.739137e-02
 1 -1 0 0 101   0  0.000000e+00  0.000000e+00  2.261409e+03  2.261409e+03 0.0 0.0 9.0
21 -1 0 0 103 101  0.000000e+00  0.000000e+00 -2.899082e+03  2.899082e+03 0.0 0.0 9.0
 1  1 1 2 103   0  1.575923e+03  1.915397e+03  3.214663e+02  2.501124e+03 0.0047 0.0 9.0
22  1 1 2   0   0 -1.575923e+03 -1.915397e+03 -9.591392e+02  2.659366e+03 0.0 0.0 9.0
#pdf 1 21 3.479090e-01 4.460126e-01 5000.0 6.548097e-02 2.846706e-02
</event>
<event>
4 7 1.0 5000.0 7.905138e-03 7.739137e-02
 1 -1 0 0 101   0  0.000000e+00  0.000000e+00  3.392453e+03  3.392453e+03 0.0 0.0 9.0
21 -1 0 0 103 101  0.000000e+00  0.000000e+00 -1.679667e+03  1.679667e+03 0.0 0.0 9.0
22  1 1 2   0   0 -8.728662e+02  7.490894e+02 -1.365832e+03  1.785645e+03 0.0 0.0 9.0
 1  1 1 2 103   0  8.728662e+02 -7.490894e+02  3.078618e+03  3.286475e+03 0.0047 0.0 9.0
#pdf 1 21 5.219158e-01 2.584103e-01 5000.0 1.292804e-02 1.218493e-01
</event>
<event>
4 7 1.0 5000.0 7.905138e-03 7.739137e-02
21 -1 0 0 103 101  0.000000e+00  0.000000e+00  2.892800e+03  2.892800e+03 0.0 0.0 9.0
 1 -1 0 0 101   0  0.000000e+00  0.000000e+00 -2.131756e+03  2.131756e+03 0.0 0.0 9.0
 1  1 1 2 103   0  1.532773e+02 -9.576340e+02 -1.932247e+03  2.161975e+03 0.0047 0.0 9.0
22  1 1 2   0   0 -1.532773e+02  9.576340e+02  2.693291e+03  2.862581e+03 0.0 0.0 9.0
#pdf 21 1 4.450462e-01 3.279625e-01 5000.0 5.884122e-03 2.557609e-02
</event>
<event>
4 7 1.0 5000.0 7.905138e-03 7.739137e-02
21 -1 0 0 103 101  0.000000e+00  0.000000e+00  1.554226e+03  1.554226e+03 0.0 0.0 9.0
 1 -1 0 0 101   0  0.000000e+00  0.000000e+00 -3.888382e+03  3.888382e+03 0.0 0.0 9.0
22  1 1 2   0   0  8.150349e+02  7.960330e+02 -3.578511e+03  3.755488e+03 0.0 0.0 9.0
 1  1 1 2 103   0 -8.150349e+02 -7.960330e+02  1.244356e+03  1.687119e+03 0.0047 0.0 9.0
#pdf 21 1 2.391117e-01 5.982126e-01 5000.0 7.646188e-02 6.603595e-04
</event>
<event>
4 7 1.0 5000.0 7.905138e-03 7.739137e-02
 1 -1 0 0 101   0  0.000000e+00  0.000000e+00  2.632048e+03  2.632048e+03 0.0 0.0 9.0
21 -1 0 0 103 101  0.000000e+00  0.000000e+00 -2.403641e+03  2.403641e+03 0.0 0.0 9.0
22  1 1 2   0   0  1.497989e+02  4.390701e+02 -2.360443e+03  2.405601e+03 0.0 0.0 9.0
 1  1 1 2 103   0 -1.497989e+02 -4.390701e+02  2.588850e+03  2.630088e+03 0.0047 0.0 9.0
#pdf 1 21 4.049304e-01 3.697909e-01 5000.0 4.127560e-02 5.521553e-02
</event>
<event>
4 7 1.0 5000.0 7.905138e-03 7.739137e-02
 1 -1 0 0 101   0  0.000000e+00  0.000000e+00  2.511363e+03  2.511363e+03 0.0 0.0 9.0
21 -1 0 0 103 101  0.000000e+00  0.000000e+00 -2.467706e+03  2.467706e+03 0.0 0.0 9.0
22  1 1 2   0   0 -1.671183e+03 -1.609359e+03 -8.806562e+02  2.481622e+03 0.0 0.0 9.0
 1  1 1 2 103   0  1.671183e+03  1.609359e+03  9.243136e+02  2.497448e+03 0.0047 0.0 9.0
#pdf 1 21 3.863636e-01 3.796471e-01 5000.0 4.828174e-02 5.102021e-02
</event>
<event>
4 7 1.0 5000.0 7.905138e-03 7.739137e-02
21 -1 0 0 103 101  0.000000e+00  0.000000e+00  2.257951e+03  2.257951e+03 0.0 0.0 9.0
 1 -1 0 0 101   0  0.000000e+00  0.000000e+00 -2.602477e+03  2.602477e+03 0.0 0.0 9.0
22  1 1 2   0   0  3.690301e+01 -1.771530e+03  1.486171e+03  2.312658e+03 0.0 0.0 9.0
 1  1 1 2 103   0 -3.690301e+01  1.771530e+03 -1.830697e+03  2.547771e+03 0.0047 0.0 9.0
#pdf 21 1 3.473770e-01 4.003811e-01 5000.0 2.015915e-02 1.042966e-02
</event>
<event>
4 7 1.0 5000.0 7.905138e-03 7.739137e-02
 1 -1 0 0 101   0  0.000000e+00  0.000000e+00  2.084166e+03  2.084166e+03 0.0 0.0 9.0
21 -1 0 0 103 101  0.000000e+00  0.000000e+00 -3.034623e+03  3.034623e+03 0.0 0.0 9.0
22  1 1 2   0   0 -2.128808e+03 -1.177692e+03  1.731326e+02  2.439007e+03 0.0 0.0 9.0
 1  1 1 2 103   0  2.128808e+03  1.177692e+03 -1.123590e+03  2.679783e+03 0.0047 0.0 9.0
#pdf 1 21 3.206410e-01 4.668651e-01 5000.0 8.009624e-02 2.325225e-02
</event>
<event>
4 7 1.0 5000.0 7.905138e-03 7.739137e-02
21 -1 0 0 103 101  0.000000e+00  0.000000e+00  1.788363e+03  1.788363e+03 0.0 0.0 9.0
 1 -1 0 0 101   0  0.000000e+00  0.000000e+00 -3.769642e+03  3.769642e+03 0.0 0.0 9.0
 1  1 1 2 103   0 -1.233406e+03 -3.693481e+02  1.422623e+03  1.918740e+03 0.0047 0.0 9.0
22  1 1 2   0   0  1.233406e+03  3.693481e+02 -3.403901e+03  3.639265e+03 0.0 0.0 9.0
#pdf 21 1 2.751328e-01 5.799449e-01 5000.0 4.886393e-02 8.795294e-04
</event>
<event>
4 7 1.0 5000.0 7.905138e-03 7.739137e-02
21 -1 0 0 103 101  0.000000e+00  0.000000e+00  2.973112e+03  2.973112e+03 0.0 0.0 9.0
 1 -1 0 0 101   0  0.000000e+00  0.000000e+00 -2.093368e+03  2.093368e+03 0.0 0.0 9.0
22  1 1 2   0   0 -1.496978e+03  1.632216e+03 -7.262075e+02  2.330762e+03 0.0 0.0 9.0
 1  1 1 2 103   0  1.496978e+03 -1.632216e+03  1.605951e+03  2.735718e+03 0.0047 0.0 9.0
#pdf 21 1 4.574018e-01 3.220566e-01 5000.0 5.005885e-03 2.749181e-02
</event>
<event>
4 7 1.0 5000.0 7.905138e-03 7.739137e-02
21 -1 0 0 103 101  0.000000e+00  0.000000e+00  2.896271e+03  2.896271e+03 0.0 0.0 9.0
 1 -1 0 0 101   0  0.000000e+00  0.000000e+00 -2.214452e+03  2.214452e+03 0.0 0.0 9.0
 1  1 1 2 103   0  2.293777e+03  1.028153e+03  2.967166e+01  2.513839e+03 0.0047 0.0 9.0
22  1 1 2   0   0 -2.293777e+03 -1.028153e+03  6.521468e+02  2.596883e+03 0.0 0.0 9.0
#pdf 21 1 4.455801e-01 3.406850e-01 5000.0 5.841994e-03 2.187865e-02
</event>
<event>
4 7 1.0 5000.0 7.905138e-03 7.739137e-02
21 -1 0 0 103 101  0.000000e+00  0.000000e+00  2.993368e+03  2.993368e+03 0.0 0.0 9.0
 1 -1 0 0 101   0  0.000000e+00  0.000000e+00 -1.752730e+03  1.752730e+03 0.0 0.0 9.0
22  1 1 2   0   0 -2.109852e+03  8.841965e+02  7.397403e+02  2.404266e+03 0.0 0.0 9.0
 1  1 1 2 103   0  2.109852e+03 -8.841965e+02  5.008974e+02  2.341832e+03 0.0047 0.0 9.0
#pdf 21 1 4.605181e-01 2.696508e-01 5000.0 4.802255e-03 5.226958e-02
</event>
<event>
4 7 1.0 5000.0 7.905138e-03 7.739137e-02
 1 -1 0 0 101   0  0.000000e+00  0.000000e+00  3.980153e+03  3.980153e+03 0.0 0.0 9.0
21 -1 0 0 103 101  0.000000e+00  0.000000e+00 -1.707965e+03  1.707965e+03 0.0 0.0 9.0
22  1 1 2   0   0 -7.062885e+02 -2.459816e+03  1.679774e+03  3.061239e+03 0.0 0.0 9.0
 1  1 1 2 103   0  7.062885e+02  2.459816e+03  5.924136e+02  2.626879e+03 0.0047 0.0 9.0
#pdf 1 21 6.123312e-01 2.627638e-01 5000.0 4.011040e-03 1.185239e-01
</event>
<event>
4 7 1.0 5000.0 7.905138e-03 7.739137e-02
21 -1 0 0 103 101  0.000000e+00  0.000000e+00  1.792758e+03  1.792758e+03 0.0 0.0 9.0
 1 -1 0 0 101   0  0.000000e+00  0.000000e+00 -3.231043e+03  3.231043e+03 0.0 0.0 9.0
 1  1 1 2 103   0 -1.537707e+03  3.871400e+02 -2.608780e+03  3.052893e+03 0.0047 0.0 9.0
22  1 1 2   0   0  1.537707e+03 -3.871400e+02  1.170495e+03  1.970908e+03 0.0 0.0 9.0
#pdf 21 1 2.758089e-01 4.970836e-01 5000.0 4.845976e-02 2.934257e-03
</event>
<event>
4 7 1.0 5000.0 7.905138e-03 7.739137e-02
21 -1 0 0 103 101  0.000000e+00  0.000000e+00  3.376468e+03  3.376468e+03 0.0 0.0 9.0
 1 -1 0 0 101   0  0.000000e+00  0.000000e+00 -1.822982e+03  1.822982e+03 0.0 0.0 9.0
22  1 1 2   0   0 -2.365480e+03 -6.226802e+02  3.421443e+02  2.469876e+03 0.0 0.0 9.0
 1  1 1 2 103   0  2.365480e+03  6.226802e+02  1.211341e+03  2.729574e+03 0.0047 0.0 9.0
#pdf 21 1 5.194566e-01 2.804588e-01 5000.0 2.148087e-03 4.576531e-02
</event>
<event>
4 7 1.0 5000.0 7.905138e-03 7.739137e-02
21 -1 0 0 103 101  0.000000e+00  0.000000e+00  3.113477e+03  3.113477e+03 0.0 0.0 9.0
 1 -1 0 0 101   0  0.000000e+00  0.000000e+00 -1.934337e+03  1.934337e+03 0.0 0.0 9.0
22  1 1 2   0   0  8.672491e+02  8.937650e+02 -1.585207e+03  2.015891e+03 0.0 0.0 9.0
 1  1 1 2 103   0 -8.672491e+02 -8.937650e+02  2.764347e+03  3.031922e+03 0.0047 0.0 9.0
#pdf 21 1 4.789965e-01 2.975902e-01 5000.0 3.753001e-03 3.712243e-02
</event>
<event>
4 7 1.0 5000.0 7.905138e-03 7.739137e-02
 1 -1 0 0 101   0  0.000000e+00  0.000000e+00  3.516166e+03  3.516166e+03 0.0 0.0 9.0
21 -1 0 0 103 101  0.000000e+00  0.000000e+00 -1.665774e+03  1.665774e+03 0.0 0.0 9.0
22  1 1 2   0   0  2.312198e+03 -3.513229e+02  2.588073e+02  2.353013e+03 0.0 0.0 9.0
 1  1 1 2 103   0 -2.312198e+03  3.513229e+02  1.591584e+03  2.828927e+03 0.0047 0.0 9.0
#pdf 1 21 5.409485e-01 2.562729e-01 5000.0 1.034364e-02 1.235066e-01
</event>
<event>
4 7 1.0 5000.0 7.905138e-03 7.739137e-02
 1 -1 0 0 101   0  0.000000e+00  0.000000e+00  2.706084e+03  2.706084e+03 0.0 0.0 9.0
21 -1 0 0 103 101  0.000000e+00  0.000000e+00 -2.260600e+03  2.260600e+03 0.0 0.0 9.0
22  1 1 2   0   0  1.455286e+02 -2.383070e+03 -4.257632e+02  2.425175e+03 0.0 0.0 9.0
 1  1 1 2 103   0 -1.455286e+02  2.383070e+03  8.712464e+02  2.541509e+03 0.0047 0.0 9.0
#pdf 1 21 4.163206e-01 3.477847e-01 5000.0 3.736643e-02 6.554292e-02
</event>
<event>
4 7 1.0 5000.0 7.905138e-03 7.739137e-02
21 -1 0 0 103 101  0.000000e+00  0.000000e+00  3.564254e+03  3.564254e+03 0.0 0.0 9.0
 1 -1 0 0 101   0  0.000000e+00  0.000000e+00 -1.697673e+03  1.697673e+03 0.0 0.0 9.0
22  1 1 2   0   0  1.634768e+03  1.640439e+03  1.820075e+03  2.945536e+03 0.0 0.0 9.0
 1  1 1 2 103   0 -1.634768e+03 -1.640439e+03  4.650481e+01  2.316391e+03 0.0047 0.0 9.0
#pdf 21 1 5.483467e-01 2.611805e-01 5000.0 1.416300e-03 5.804460e-02
</event>
<event>
4 7 1.0 5000.0 7.905138e-03 7.739137e-02
 1 -1 0 0 101   0  0.000000e+00  0.000000e+00  2.823510e+03  2.823510e+03 0.0 0.0 9.0
21 -1 0 0 103 101  0.000000e+00  0.000000e+00 -2.212393e+03  2.212393e+03 0.0 0.0 9.0
22  1 1 2   0   0  6.189027e+02 -1.637278e+03  2.102937e+03  2.736067e+03 0.0 0.0 9.0
 1  1 1 2 103   0 -6.189027e+02  1.637278e+03 -1.491820e+03  2.299836e+03 0.0047 0.0 9.0
#pdf 1 21 4.343862e-01 3.403682e-01 5000.0 3.174769e-02 6.931134e-02
</event>
<event>
4 7 1.0 5000.0 7.905138e-03 7.739137e-02
21 -1 0 0 103 101  0.000000e+00  0.000000e+00  1.690711e+03  1.690711e+03 0.0 0.0 9.0
 1 -1 0 0 101   0  0.000000e+00  0.000000e+00 -3.794069e+03  3.794069e+03 0.0 0.0 9.0
 1  1 1 2 103   0 -2.085378e+03  1.047796e+03 -2.116996e+03  3.150928e+03 0.0047 0.0 9.0
22  1 1 2   0   0  2.085378e+03 -1.047796e+03  1.363889e+01  2.333852e+03 0.0 0.0 9.0
#pdf 21 1 2.601094e-01 5.837029e-01 5000.0 5.882730e-02 8.299171e-04
</event>
<event>
4 7 1.0 5000.0 7.905138e-03 7.739137e-02
21 -1 0 0 103 101  0.000000e+00  0.000000e+00  3.479320e+03  3.479320e+03 0.0 0.0 9.0
 1 -1 0 0 101   0  0.000000e+00  0.000000e+00 -1.794501e+03  1.794501e+03 0.0 0.0 9.0
 1  1 1 2 103   0 -2.192160e+03 -6.876341e+02  1.879205e+03  2.968134e+03 0.0047 0.0 9.0
22  1 1 2   0   0  2.192160e+03  6.876341e+02 -1.943866e+02  2.305687e+03 0.0 0.0 9.0
#pdf 21 1 5.352800e-01 2.760771e-01 5000.0 1.713953e-03 4.830032e-02
</event>
<event>
4 7 1.0 5000.0 7.905138e-03 7.739137e-02
21 -1 0 0 103 101  0.000000e+00  0.000000e+00  3.820479e+03  3.820479e+03 0.0 0.0 9.0
 1 -1 0 0 101   0  0.000000e+00  0.000000e+00 -1.637976e+03  1.637976e+03 0.0 0.0 9.0
 1  1 1 2 103   0 -1.641434e+03  1.296183e+03 -4.060346e+02  2.130554e+03 0.0047 0.0 9.0
22  1 1 2   0   0  1.641434e+03 -1.296183e+03  2.588538e+03  3.327901e+03 0.0 0.0 9.0
#pdf 21 1 5.877660e-01 2.519963e-01 5000.0 7.789986e-04 6.511043e-02
</event>
<event>
4 7 1.0 5000.0 7.905138e-03 7.739137e-02
 1 -1 0 0 101   0  0.000000e+00  0.000000e+00  2.126923e+03  2.126923e+03 0.0 0.0 9.0
21 -1 0 0 103 101  0.000000e+00  0.000000e+00 -2.927636e+03  2.927636e+03 0.0 0.0 9.0
 1  1 1 2 103   0  1.223917e+03 -2.151860e+03 -8.268281e+01  2.476955e+03 0.0047 0.0 9.0
22  1 1 2   0   0 -1.223917e+03  2.151860e+03 -7.180306e+02  2.577603e+03 0.0 0.0 9.0
#pdf 1 21 3.272189e-01 4.504056e-01 5000.0 7.637494e-02 2.730777e-02
</event>
<event>
4 7 1.0 5000.0 7.905138e-03 7.739137e-02
 1 -1 0 0 101   0  0.000000e+00  0.000000e+00  2.197014e+03  2.197014e+03 0.0 0.0 9.0
21 -1 0 0 103 101  0.000000e+00  0.000000e+00 -2.918565e+03  2.918565e+03 0.0 0.0 9.0
22  1 1 2   0   0  1.117751e+03  2.045539e+02 -2.646573e+03  2.880201e+03 0.0 0.0 9.0
 1  1 1 2 103   0 -1.117751e+03 -2.045539e+02  1.925022e+03  2.235379e+03 0.0047 0.0 9.0
#pdf 1 21 3.380022e-01 4.490100e-01 5000.0 7.054515e-02 2.767079e-02
</event>
<event>
4 7 1.0 5000.0 7.905138e-03 7.739137e-02
 1 -1 0 0 101   0  0.000000e+00  0.000000e+00  3.137088e+03  3.137088e+03 0.0 0.0 9.0
21 -1 0 0 103 101  0.000000e+00  0.000000e+00 -2.020127e+03  2.020127e+03 0.0 0.0 9.0
22  1 1 2   0   0 -2.257803e+03 -9.247308e+00  1.698903e+03  2.825603e+03 0.0 0.0 9.0
 1  1 1 2 103   0  2.257803e+03  9.247308e+00 -5.819410e+02  2.331612e+03 0.0047 0.0 9.0
#pdf 1 21 4.826290e-01 3.107887e-01 5000.0 1.981213e-02 8.591037e-02
</event>
<event>
4 7 1.0 5000.0 7.905138e-03 7.739137e-02
 1 -1 0 0 101   0  0.000000e+00  0.000000e+00  1.796956e+03  1.796956e+03 0.0 0.0 9.0
21 -1 0 0 103 101  0.000000e+00  0.000000e+00 -3.670830e+03  3.670830e+03 0.0 0.0 9.0
 1  1 1 2 103   0  1.187837e+03  1.920696e+03  3.651456e+02  2.287654e+03 0.0047 0.0 9.0
22  1 1 2   0   0 -1.187837e+03 -1.920696e+03 -2.239019e+03  3.180132e+03 0.0 0.0 9.0
#pdf 1 21 2.764548e-01 5.647430e-01 5000.0 1.084726e-01 7.706214e-03
</event>
<event>
4 7 1.0 5000.0 7.905138e-03 7.739137e-02
21 -1 0 0 103 101  0.000000e+00  0.000000e+00  2.409245e+03  2.409245e+03 0.0 0.0 9.0
 1 -1 0 0 101   0  0.000000e+00  0.000000e+00 -2.565597e+03  2.565597e+03 0.0 0.0 9.0
 1  1 1 2 103   0  1.372799e+03  1.812883e+03 -1.083674e+03  2.519022e+03 0.0047 0.0 9.0
22  1 1 2   0   0 -1.372799e+03 -1.812883e+03  9.273223e+02  2.455819e+03 0.0 0.0 9.0
#pdf 21 1 3.706531e-01 3.947072e-01 5000.0 1.511299e-02 1.120050e-02
</event>
<event>
4 7 1.0 5000.0 7.905138e-03 7.739137e-02
 1 -1 0 0 101   0  0.000000e+00  0.000000e+00  3.241968e+03  3.241968e+03 0.0 0.0 9.0
21 -1 0 0 103 101  0.000000e+00  0.000000e+00 -1.980031e+03  1.980031e+03 0.0 0.0 9.0
22  1 1 2   0   0 -3.851507e+02 -1.986072e+03  2.202801e+03  2.990845e+03 0.0 0.0 9.0
 1  1 1 2 103   0  3.851507e+02  1.986072e+03 -9.408632e+02  2.231154e+03 0.0047 0.0 9.0
#pdf 1 21 4.987643e-01 3.046201e-01 5000.0 1.671034e-02 8.970009e-02
</event>
<event>
4 7 1.0 5000.0 7.905138e-03 7.739137e-02
21 -1 0 0 103 101  0.000000e+00  0.000000e+00  2.136587e+03  2.136587e+03 0.0 0.0 9.0
 1 -1 0 0 101   0  0.000000e+00  0.000000e+00 -2.719098e+03  2.719098e+03 0.0 0.0 9.0
 1  1 1 2 103   0  8.452402e+02  2.958494e+02  1.962796e+03  2.157435e+03 0.0047 0.0 9.0
22  1 1 2   0   0 -8.452402e+02 -2.958494e+02 -2.545307e+03  2.698249e+03 0.0 0.0 9.0
#pdf 21 1 3.287056e-01 4.183227e-01 5000.0 2.534463e-02 8.305970e-03
</event>
<event>
4 7 1.0 5000.0 7.905138e-03 7.739137e-02
21 -1 0 0 103 101  0.000000e+00  0.000000e+00  3.277895e+03  3.277895e+03 0.0 0.0 9.0
 1 -1 0 0 101   0  0.000000e+00  0.000000e+00 -2.001527e+03  2.001527e+03 0.0 0.0 9.0
 1  1 1 2 103   0  1.538545e+02  1.585529e+03  2.705302e+03  3.139463e+03 0.0047 0.0 9.0
22  1 1 2   0   0 -1.538545e+02 -1.585529e+03 -1.428933e+03  2.139959e+03 0.0 0.0 9.0
#pdf 21 1 5.042916e-01 3.079272e-01 5000.0 2.655674e-03 3.272092e-02
</event>
<event>
4 7 1.0 5000.0 7.905138e-03 7.739137e-02
21 -1 0 0 103 101  0.000000e+00  0.000000e+00  2.770270e+03  2.770270e+03 0.0 0.0 9.0
 1 -1 0 0 101   0  0.000000e+00  0.000000e+00 -2.231218e+03  2.231218e+03 0.0 0.0 9.0
 1  1 1 2 103   0  9.517528e+02  2.289369e+03  4.550855e+02  2.520743e+03 0.0047 0.0 9.0
22  1 1 2   0   0 -9.517528e+02 -2.289369e+03  8.396661e+01  2.480744e+03 0.0 0.0 9.0
#pdf 21 1 4.261953e-01 3.432643e-01 5000.0 7.509747e-03 2.119938e-02
</event>
<event>
4 7 1.0 5000.0 7.905138e-03 7.739137e-02
 1 -1 0 0 101   0  0.000000e+00  0.000000e+00  3.616563e+03  3.616563e+03 0.0 0.0 9.0
21 -1 0 0 103 101  0.000000e+00  0.000000e+00 -1.736347e+03  1.736347e+03 0.0 0.0 9.0
22  1 1 2   0   0  1.707475e+03  9.916278e+02 -7.078881e+02  2.097595e+03 0.0 0.0 9.0
 1  1 1 2 103   0 -1.707475e+03 -9.916278e+02  2.588104e+03  3.255315e+03 0.0047 0.0 9.0
#pdf 1 21 5.563943e-01 2.671303e-01 5000.0 8.564550e-03 1.152538e-01
</event>
<event>
4 7 1.0 5000.0 7.905138e-03 7.739137e-02
 1 -1 0 0 101   0  0.000000e+00  0.000000e+00  1.597769e+03  1.597769e+03 0.0 0.0 9.0
21 -1 0 0 103 101  0.000000e+00  0.000000e+00 -3.897162e+03  3.897162e+03 0.0 0.0 9.0
 1  1 1 2 103   0 -2.884618e+02 -6.542786e+02 -3.781947e+03  3.848949e+03 0.0047 0.0 9.0
22  1 1 2   0   0  2.884618e+02  6.542786e+02  1.482553e+03  1.645982e+03 0.0 0.0 9.0
#pdf 1 21 2.458106e-01 5.995634e-01 5000.0 1.318383e-01 4.820854e-03
</event>
<event>
4 7 1.0 5000.0 7.905138e-03 7.739137e-02
 1 -1 0 0 101   0  0.000000e+00  0.000000e+00  2.664284e+03  2.664284e+03 0.0 0.0 9.0
21 -1 0 0 103 101  0.000000e+00  0.000000e+00 -2.252552e+03  2.252552e+03 0.0 0.0 9.0
 1  1 1 2 103   0  2.879984e+01 -1.943146e+03  1.702697e+03  2.583761e+03 0.0047 0.0 9.0
22  1 1 2   0   0 -2.879984e+01  1.943146e+03 -1.290964e+03  2.333074e+03 0.0 0.0 9.0
#pdf 1 21 4.098898e-01 3.465464e-01 5000.0 3.953809e-02 6.616195e-02
</event>
<event>
4 7 1.0 5000.0 7.905138e-03 7.739137e-02
21 -1 0 0 103 101  0.000000e+00  0.000000e+00  3.440522e+03  3.440522e+03 0.0 0.0 9.0
 1 -1 0 0 101   0  0.000000e+00  0.000000e+00 -1.827699e+03  1.827699e+03 0.0 0.0 9.0
22  1 1 2   0   0  1.698702e+02 -1.717070e+03  2.717817e+03  3.219272e+03 0.0 0.0 9.0
 1  1 1 2 103   0 -1.698702e+02  1.717070e+03 -1.104993e+03  2.048950e+03 0.0047 0.0 9.0
#pdf 21 1 5.293111e-01 2.811845e-01 5000.0 1.868368e-03 4.535756e-02
</event>
<event>
4 7 1.0 5000.0 7.905138e-03 7.739137e-02
21 -1 0 0 103 101  0.000000e+00  0.000000e+00  4.631061e+03  4.631061e+03 0.0 0.0 9.0
 1 -1 0 0 101   0  0.000000e+00  0.000000e+00 -9.974679e+02  9.974679e+02 0.0 0.0 9.0
 1  1 1 2 103   0  6.476669e+02 -7.935259e+02 -6.573202e+02  1.217056e+03 0.0047 0.0 9.0
22  1 1 2   0   0 -6.476669e+02  7.935259e+02  4.290913e+03  4.411473e+03 0.0 0.0 9.0
#pdf 21 1 7.124709e-01 1.534566e-01 5000.0 8.398285e-05 2.365572e-01
</event>
<event>
4 7 1.0 5000.0 7.905138e-03 7.739137e-02
 1 -1 0 0 101   0  0.000000e+00  0.000000e+00  2.692659e+03  2.692659e+03 0.0 0.0 9.0
21 -1 0 0 103 101  0.000000e+00  0.000000e+00 -2.368650e+03  2.368650e+03 0.0 0.0 9.0
 1  1 1 2 103   0  6.141165e+02 -2.071184e+03 -1.148745e+03  2.446744e+03 0.0047 0.0 9.0
22  1 1 2   0   0 -6.141165e+02  2.071184e+03  1.472754e+03  2.614564e+03 0.0 0.0 9.0
#pdf 1 21 4.142552e-01 3.644077e-01 5000.0 3.805408e-02 5.763114e-02
</event>
<event>
4 7 1.0 5000.0 7.905138e-03 7.739137e-02
21 -1 0 0 103 101  0.000000e+00  0.000000e+00  2.091034e+03  2.091034e+03 0.0 0.0 9.0
 1 -1 0 0 101   0  0.000000e+00  0.000000e+00 -2.969871e+03  2.969871e+03 0.0 0.0 9.0
 1  1 1 2 103   0  1.494719e+03 -4.504363e+01 -2.463633e+03  2.881962e+03 0.0047 0.0 9.0
22  1 1 2   0   0 -1.494719e+03  4.504363e+01  1.584797e+03  2.178944e+03 0.0 0.0 9.0
#pdf 21 1 3.216976e-01 4.569033e-01 5000.0 2.761287e-02 5.039217e-03
</event>
<event>
4 7 1.0 5000.0 7.905138e-03 7.739137e-02
 1 -1 0 0 101   0  0.000000e+00  0.000000e+00  1.536601e+03  1.536601e+03 0.0 0.0 9.0
21 -1 0 0 103 101  0.000000e+00  0.000000e+00 -3.905648e+03  3.905648e+03 0.0 0.0 9.0
 1  1 1 2 103   0  4.358254e+02  2.410684e+03 -1.194484e+03  2.725460e+03 0.0047 0.0 9.0
22  1 1 2   0   0 -4.358254e+02 -2.410684e+03 -1.174563e+03  2.716789e+03 0.0 0.0 9.0
#pdf 1 21 2.364001e-01 6.008690e-01 5000.0 1.396578e-01 4.732801e-03
</event>
<event>
4 7 1.0 5000.0 7.905138e-03 7.739137e-02
21 -1 0 0 103 101  0.000000e+00  0.000000e+00  1.874734e+03  1.874734e+03 0.0 0.0 9.0
 1 -1 0 0 101   0  0.000000e+00  0.000000e+00 -3.344966e+03  3.344966e+03 0.0 0.0 9.0
 1  1 1 2 103   0 -2.030678e+03  1.463962e+03 -8.017181e+02  2.628610e+03 0.0047 0.0 9.0
22  1 1 2   0   0  2.030678e+03 -1.463962e+03 -6.685137e+02  2.591090e+03 0.0 0.0 9.0
#pdf 21 1 2.884207e-01 5.146102e-01 5000.0 4.152535e-02 2.300364e-03
</event>
<event>
4 7 1.0 5000.0 7.905138e-03 7.739137e-02
 1 -1 0 0 101   0  0.000000e+00  0.000000e+00  3.763370e+03  3.763370e+03 0.0 0.0 9.0
21 -1 0 0 103 101  0.000000e+00  0.000000e+00 -1.491943e+03  1.491943e+03 0.0 0.0 9.0
 1  1 1 2 103   0 -2.869294e+02 -2.062429e+03 -1.183056e+02  2.085650e+03 0.0047 0.0 9.0
22  1 1 2   0   0  2.869294e+02  2.062429e+03  2.389732e+03  3.169663e+03 0.0 0.0 9.0
#pdf 1 21 5.789800e-01 2.295297e-01 5000.0 6.393402e-03 1.455628e-01
</event>
<event>
4 7 1.0 5000.0 7.905138e-03 7.739137e-02
21 -1 0 0 103 101  0.000000e+00  0.000000e+00  2.194388e+03  2.194388e+03 0.0 0.0 9.0
 1 -1 0 0 101   0  0.000000e+00  0.000000e+00 -2.878933e+03  2.878933e+03 0.0 0.0 9.0
22  1 1 2   0   0 -1.724423e+03 -1.687427e+03 -1.053367e+03  2.632609e+03 0.0 0.0 9.0
 1  1 1 2 103   0  1.724423e+03  1.687427e+03  3.688214e+02  2.440712e+03 0.0047 0.0 9.0
#pdf 21 1 3.375981e-01 4.429128e-01 5000.0 2.272269e-02 6.054615e-03
</event>
<event>
4 7 1.0 5000.0 7.905138e-03 7.739137e-02
 1 -1 0 0 101   0  0.000000e+00  0.000000e+00  2.653773e+03  2.653773e+03 0.0 0.0 9.0
21 -1 0 0 103 101  0.000000e+00  0.000000e+00 -2.311542e+03  2.311542e+03 0.0 0.0 9.0
 1  1 1 2 103   0 -1.210995e+03 -2.440961e+02 -1.980677e+03  2.334347e+03 0.0047 0.0 9.0
22  1 1 2   0   0  1.210995e+03  2.440961e+02  2.322908e+03  2.630969e+03 0.0 0.0 9.0
#pdf 1 21 4.082728e-01 3.556218e-01 5000.0 4.009845e-02 6.171561e-02
</event>
<event>
4 7 1.0 5000.0 7.905138e-03 7.739137e-02
21 -1 0 0 103 101  0.000000e+00  0.000000e+00  1.984999e+03  1.984999e+03 0.0 0.0 9.0
 1 -1 0 0 101   0  0.000000e+00  0.000000e+00 -3.152065e+03  3.152065e+03 0.0 0.0 9.0
22  1 1 2   0   0 -7.546488e+02 -2.259700e+03 -1.366306e+03  2.746367e+03 0.0 0.0 9.0
 1  1 1 2 103   0  7.546488e+02  2.259700e+03  1.992395e+02  2.390698e+03 0.0047 0.0 9.0
#pdf 21 1 3.053845e-01 4.849331e-01 5000.0 3.375409e-02 3.462591e-03
</event>
<event>
4 7 1.0 5000.0 7.905138e-03 7.739137e-02
 1 -1 0 0 101   0  0.000000e+00  0.000000e+00  1.976306e+03  1.976306e+03 0.0 0.0 9.0
21 -1 0 0 103 101  0.000000e+00  0.000000e+00 -3.166508e+03  3.166508e+03 0.0 0.0 9.0
 1  1 1 2 103   0  2.117669e+03 -1.006332e+03  3.014564e+02  2.363917e+03 0.0047 0.0 9.0
22  1 1 2   0   0 -2.117669e+03  1.006332e+03 -1.491659e+03  2.778898e+03 0.0 0.0 9.0
#pdf 1 21 3.040471e-01 4.871551e-01 5000.0 9.005703e-02 1.890090e-02
</event>
<event>
4 7 1.0 5000.0 7.905138e-03 7.739137e-02
21 -1 0 0 103 101  0.000000e+00  0.000000e+00  3.854126e+03  3.854126e+03 0.0 0.0 9.0
 1 -1 0 0 101   0  0.000000e+00  0.000000e+00 -1.621710e+03  1.621710e+03 0.0 0.0 9.0
22  1 1 2   0   0  2.406798e+03  5.285577e+02  1.578539e+03  2.926403e+03 0.0 0.0 9.0
 1  1 1 2 103   0 -2.406798e+03 -5.285577e+02  6.538765e+02  2.549433e+03 0.0047 0.0 9.0
#pdf 21 1 5.929424e-01 2.494939e-01 5000.0 7.178407e-04 6.715288e-02
</event>
<event>
4 7 1.0 5000.0 7.905138e-03 7.739137e-02
21 -1 0 0 103 101  0.000000e+00  0.000000e+00  1.746780e+03  1.746780e+03 0.0 0.0 9.0
 1 -1 0 0 101   0  0.000000e+00  0.000000e+00 -3.524073e+03  3.524073e+03 0.0 0.0 9.0
 1  1 1 2 103   0  2.222069e+03 -9.902041e+02 -3.707913e+02  2.460809e+03 0.0047 0.0 9.0
22  1 1 2   0   0 -2.222069e+03  9.902041e+02 -1.406501e+03  2.810043e+03 0.0 0.0 9.0
#pdf 21 1 2.687354e-01 5.421650e-01 5000.0 5.286193e-02 1.550516e-03
</event>
<event>
4 7 1.0 5000.0 7.905138e-03 7.739137e-02
 1 -1 0 0 101   0  0.000000e+00  0.000000e+00  2.534389e+03  2.534389e+03 0.0 0.0 9.0
21 -1 0 0 103 101  0.000000e+00  0.000000e+00 -2.587715e+03  2.587715e+03 0.0 0.0 9.0
 1  1 1 2 103   0 -2.706601e+02  1.235723e+03  2.200116e+03  2.537869e+03 0.0047 0.0 9.0
22  1 1 2   0   0  2.706601e+02 -1.235723e+03 -2.253442e+03  2.584235e+03 0.0 0.0 9.0
#pdf 1 21 3.899059e-01 3.981100e-01 5000.0 4.688189e-02 4.375695e-02
</event>
<event>
4 7 1.0 5000.0 7.905138e-03 7.739137e-02
 1 -1 0 0 101   0  0.000000e+00  0.000000e+00  2.455316e+03  2.455316e+03 0.0 0.0 9.0
21 -1 0 0 103 101  0.000000e+00  0.000000e+00 -2.642956e+03  2.642956e+03 0.0 0.0 9.0
 1  1 1 2 103   0 -4.031655e+02 -1.043450e+03 -2.384031e+03  2.633426e+03 0.0047 0.0 9.0
22  1 1 2   0   0  4.031655e+02  1.043450e+03  2.196391e+03  2.464846e+03 0.0 0.0 9.0
#pdf 1 21 3.777409e-01 4.066086e-01 5000.0 5.181544e-02 4.068136e-02
</event>
<event>
4 7 1.0 5000.0 7.905138e-03 7.739137e-02
 1 -1 0 0 101   0  0.000000e+00  0.000000e+00  4.268821e+03  4.268821e+03 0.0 0.0 9.0
21 -1 0 0 103 101  0.000000e+00  0.000000e+00 -1.445144e+03  1.445144e+03 0.0 0.0 9.0
22  1 1 2   0   0  1.803305e+02  1.522990e+03 -8.354647e+02  1.746430e+03 0.0 0.0 9.0
 1  1 1 2 103   0 -1.803305e+02 -1.522990e+03  3.659142e+03  3.967535e+03 0.0047 0.0 9.0
#pdf 1 21 6.567417e-01 2.223299e-01 5000.0 1.994562e-03 1.519261e-01
</event>
<event>
4 7 1.0 5000.0 7.905138e-03 7.739137e-02
21 -1 0 0 103 101  0.000000e+00  0.000000e+00  2.339405e+03  2.339405e+03 0.0 0.0 9.0
 1 -1 0 0 101   0  0.000000e+00  0.000000e+00 -2.732226e+03  2.732226e+03 0.0 0.0 9.0
22  1 1 2   0   0 -1.043826e+03  3.763624e+02  2.082122e+03  2.359333e+03 0.0 0.0 9.0
 1  1 1 2 103   0  1.043826e+03 -3.763624e+02 -2.474943e+03  2.712299e+03 0.0047 0.0 9.0
#pdf 21 1 3.599085e-01 4.203425e-01 5000.0 1.726782e-02 8.094849e-03
</event>
<event>
4 7 1.0 5000.0 7.905138e-03 7.739137e-02
 1 -1 0 0 101   0  0.000000e+00  0.000000e+00  1.750726e+03  1.750726e+03 0.0 0.0 9.0
21 -1 0 0 103 101  0.000000e+00  0.000000e+00 -3.627145e+03  3.627145e+03 0.0 0.0 9.0
 1  1 1 2 103   0 -9.933724e+02 -2.241611e+03 -3.173617e+02  2.472312e+03 0.0047 0.0 9.0
22  1 1 2   0   0  9.933724e+02  2.241611e+03 -1.559058e+03  2.905558e+03 0.0 0.0 9.0
#pdf 1 21 2.693424e-01 5.580223e-01 5000.0 1.136197e-01 8.393241e-03
</event>
<event>
4 7 1.0 5000.0 7.905138e-03 7.739137e-02
21 -1 0 0 103 101  0.000000e+00  0.000000e+00  2.976018e+03  2.976018e+03 0.0 0.0 9.0
 1 -1 0 0 101   0  0.000000e+00  0.000000e+00 -2.127222e+03  2.127222e+03 0.0 0.0 9.0
22  1 1 2   0   0  2.324237e+03  6.839418e+02  1.112807e+03  2.666120e+03 0.0 0.0 9.0
 1  1 1 2 103   0 -2.324237e+03 -6.839418e+02 -2.640108e+02  2.437120e+03 0.0047 0.0 9.0
#pdf 21 1 4.578490e-01 3.272649e-01 5000.0 4.976154e-03 2.579526e-02
</event>
<event>
4 7 1.0 5000.0 7.905138e-03 7.739137e-02
 1 -1 0 0 101   0  0.000000e+00  0.000000e+00  2.817025e+03  2.817025e+03 0.0 0.0 9.0
21 -1 0 0 103 101  0.000000e+00  0.000000e+00 -2.192459e+03  2.192459e+03 0.0 0.0 9.0
 1  1 1 2 103   0  7.864986e+02  6.124119e+02 -1.982148e+03  2.218680e+03 0.0047 0.0 9.0
22  1 1 2   0   0 -7.864986e+02 -6.124119e+02  2.606714e+03  2.790804e+03 0.0 0.0 9.0
#pdf 1 21 4.333885e-01 3.373014e-01 5000.0 3.203921e-02 7.091367e-02
</event>
<event>
4 7 1.0 5000.0 7.905138e-03 7.739137e-02
 1 -1 0 0 101   0  0.000000e+00  0.000000e+00  2.234915e+03  2.234915e+03 0.0 0.0 9.0
21 -1 0 0 103 101  0.000000e+00  0.000000e+00 -2.828191e+03  2.828191e+03 0.0 0.0 9.0
22  1 1 2   0   0 -1.364736e+03 -8.663151e+02  1.642273e+03  2.304359e+03 0.0 0.0 9.0
 1  1 1 2 103   0  1.364736e+03  8.663151e+02 -2.235549e+03  2.758748e+03 0.0047 0.0 9.0
#pdf 1 21 3.438331e-01 4.351063e-01 5000.0 6.753243e-02 3.153846e-02
</event>
<event>
4 7 1.0 5000.0 7.905138e-03 7.739137e-02
 1 -1 0 0 101   0  0.000000e+00  0.000000e+00  2.938152e+03  2.938152e+03 0.0 0.0 9.0
21 -1 0 0 103 101  0.000000e+00  0.000000e+00 -1.837404e+03  1.837404e+03 0.0 0.0 9.0
 1  1 1 2 103   0  3.257158e+02  2.265359e+03  9.622519e+02  2.482715e+03 0.0047 0.0 9.0
22  1 1 2   0   0 -3.257158e+02 -2.265359e+03  1.384960e+02  2.292842e+03 0.0 0.0 9.0
#pdf 1 21 4.520234e-01 2.826776e-01 5000.0 2.688921e-02 1.041086e-01
</event>
<event>
4 7 1.0 5000.0 7.905138e-03 7.739137e-02
21 -1 0 0 103 101  0.000000e+00  0.000000e+00  2.348461e+03  2.348461e+03 0.0 0.0 9.0
 1 -1 0 0 101   0  0.000000e+00  0.000000e+00 -2.672411e+03  2.672411e+03 0.0 0.0 9.0
22  1 1 2   0   0 -2.101531e+02 -1.677884e+03  1.690288e+03  2.390927e+03 0.0 0.0 9.0
 1  1 1 2 103   0  2.101531e+02  1.677884e+03 -2.014237e+03  2.629945e+03 0.0047 0.0 9.0
#pdf 21 1 3.613017e-01 4.111401e-01 5000.0 1.697583e-02 9.100728e-03
</event>
<event>
4 7 1.0 5000.0 7.905138e-03 7.739137e-02
 1 -1 0 0 101   0  0.000000e+00  0.000000e+00  1.657225e+03  1.657225e+03 0.0 0.0 9.0
21 -1 0 0 103 101  0.000000e+00  0.000000e+00 -3.752064e+03  3.752064e+03 0.0 0.0 9.0
 1  1 1 2 103   0  5.075028e+02  1.219201e+03 -3.341627e+03  3.593116e+03 0.0047 0.0 9.0
22  1 1 2   0   0 -5.075028e+02 -1.219201e+03  1.246787e+03  1.816174e+03 0.0 0.0 9.0
#pdf 1 21 2.549577e-01 5.772407e-01 5000.0 1.245342e-01 6.542858e-03
</event>
<event>
4 7 1.0 5000.0 7.905138e-03 7.739137e-02
 1 -1 0 0 101   0  0.000000e+00  0.000000e+00  2.262352e+03  2.262352e+03 0.0 0.0 9.0
21 -1 0 0 103 101  0.000000e+00  0.000000e+00 -2.743221e+03  2.743221e+03 0.0 0.0 9.0
 1  1 1 2 103   0  2.761328e+02 -8.247906e+02  2.104851e+03  2.277482e+03 0.0047 0.0 9.0
22  1 1 2   0   0 -2.761328e+02  8.247906e+02 -2.585720e+03  2.728090e+03 0.0 0.0 9.0
#pdf 1 21 3.480541e-01 4.220340e-01 5000.0 6.540875e-02 3.551212e-02
</event>
<event>
4 7 1.0 5000.0 7.905138e-03 7.739137e-02
21 -1 0 0 103 101  0.000000e+00  0.000000e+00  1.751759e+03  1.751759e+03 0.0 0.0 9.0
 1 -1 0 0 101   0  0.000000e+00  0.000000e+00 -3.692134e+03  3.692134e+03 0.0 0.0 9.0
 1  1 1 2 103   0 -1.036779e+03  1.491167e+03  9.351911e+02  2.042810e+03 0.0047 0.0 9.0
22  1 1 2   0   0  1.036779e+03 -1.491167e+03 -2.875566e+03  3.401083e+03 0.0 0.0 9.0
#pdf 21 1 2.695014e-01 5.680206e-01 5000.0 5.236578e-02 1.056544e-03
</event>
<event>
4 7 1.0 5000.0 7.905138e-03 7.739137e-02
21 -1 0 0 103 101  0.000000e+00  0.000000e+00  1.924270e+03  1.924270e+03 0.0 0.0 9.0
 1 -1 0 0 101   0  0.000000e+00  0.000000e+00 -3.161030e+03  3.161030e+03 0.0 0.0 9.0
22  1 1 2   0   0 -1.132771e+03 -2.045533e+03  1.903109e+02  2.345974e+03 0.0 0.0 9.0
 1  1 1 2 103   0  1.132771e+03  2.045533e+03 -1.427071e+03  2.739326e+03 0.0047 0.0 9.0
#pdf 21 1 2.960415e-01 4.863123e-01 5000.0 3.784403e-02 3.398405e-03
</event>
<event>
4 7 1.0 5000.0 7.905138e-03 7.739137e-02
 1 -1 0 0 101   0  0.000000e+00  0.000000e+00  2.684415e+03  2.684415e+03 0.0 0.0 9.0
21 -1 0 0 103 101  0.000000e+00  0.000000e+00 -2.429187e+03  2.429187e+03 0.0 0.0 9.0
 1  1 1 2 103   0 -1.873991e+03 -9.428607e+02  1.585493e+03  2.629566e+03 0.0047 0.0 9.0
22  1 1 2   0   0  1.873991e+03  9.428607e+02 -1.330265e+03  2.484036e+03 0.0 0.0 9.0
#pdf 1 21 4.129869e-01 3.737211e-01 5000.0 3.848094e-02 5.351529e-02
</event>
<event>
4 7 1.0 5000.0 7.905138e-03 7.739137e-02
21 -1 0 0 103 101  0.000000e+00  0.000000e+00  1.635600e+03  1.635600e+03 0.0 0.0 9.0
 1 -1 0 0 101   0  0.000000e+00  0.000000e+00 -3.879259e+03  3.879259e+03 0.0 0.0 9.0
22  1 1 2   0   0  1.710329e+03 -1.742178e+03 -4.430286e+02  2.481267e+03 0.0 0.0 9.0
 1  1 1 2 103   0 -1.710329e+03  1.742178e+03 -1.800630e+03  3.033592e+03 0.0047 0.0 9.0
#pdf 21 1 2.516308e-01 5.968090e-01 5000.0 6.540615e-02 6.752190e-04
</event>
<event>
4 7 1.0 5000.0 7.905138e-03 7.739137e-02
 1 -1 0 0 101   0  0.000000e+00  0.000000e+00  2.516919e+03  2.516919e+03 0.0 0.0 9.0
21 -1 0 0 103 101  0.000000e+00  0.000000e+00 -2.088213e+03  2.088213e+03 0.0 0.0 9.0
22  1 1 2   0   0 -4.587125e+02  2.236376e+03  4.251946e+02  2.322194e+03 0.0 0.0 9.0
 1  1 1 2 103   0  4.587125e+02 -2.236376e+03  3.511344e+00  2.282938e+03 0.0047 0.0 9.0
#pdf 1 21 3.872183e-01 3.212636e-01 5000.0 4.794099e-02 7.973883e-02
</event>
<event>
4 7 1.0 5000.0 7.905138e-03 7.739137e-02
 1 -1 0 0 101   0  0.000000e+00  0.000000e+00  1.607717e+03  1.607717e+03 0.0 0.0 9.0
21 -1 0 0 103 101  0.000000e+00  0.000000e+00 -3.978244e+03  3.978244e+03 0.0 0.0 9.0
22  1 1 2   0   0 -2.101715e+03 -1.325180e+03 -1.706295e+03  3.014092e+03 0.0 0.0 9.0
 1  1 1 2 103   0  2.101715e+03  1.325180e+03 -6.642322e+02  2.571869e+03 0.0047 0.0 9.0
#pdf 1 21 2.473410e-01 6.120376e-01 5000.0 1.305977e-01 4.028375e-03
</event>
<event>
4 7 1.0 5000.0 7.905138e-03 7.739137e-02
21 -1 0 0 103 101  0.000000e+00  0.000000e+00  2.580651e+03  2.580651e+03 0.0 0.0 9.0
 1 -1 0 0 101   0  0.000000e+00  0.000000e+00 -2.311393e+03  2.311393e+03 0.0 0.0 9.0
22  1 1 2   0   0 -1.691809e+03  1.755507e+03 -1.007660e+01  2.438057e+03 0.0 0.0 9.0
 1  1 1 2 103   0  1.691809e+03 -1.755507e+03  2.793351e+02  2.453986e+03 0.0047 0.0 9.0
#pdf 21 1 3.970232e-01 3.555989e-01 5000.0 1.087932e-02 1.820827e-02
</event>
<event>
4 7 1.0 5000.0 7.905138e-03 7.739137e-02
 1 -1 0 0 101   0  0.000000e+00  0.000000e+00  2.252405e+03  2.252405e+03 0.0 0.0 9.0
21 -1 0 0 103 101  0.000000e+00  0.000000e+00 -2.762415e+03  2.762415e+03 0.0 0.0 9.0
 1  1 1 2 103   0  2.030386e+03 -1.160097e+03  6.177273e+02  2.418653e+03 0.0047 0.0 9.0
22  1 1 2   0   0 -2.030386e+03  1.160097e+03 -1.127737e+03  2.596167e+03 0.0 0.0 9.0
#pdf 1 21 3.465238e-01 4.249869e-01 5000.0 6.617327e-02 3.458107e-02
</event>
<event>
4 7 1.0 5000.0 7.905138e-03 7.739137e-02
21 -1 0 0 103 101  0.000000e+00  0.000000e+00  2.028586e+03  2.028586e+03 0.0 0.0 9.0
 1 -1 0 0 101   0  0.000000e+00  0.000000e+00 -3.113324e+03  3.113324e+03 0.0 0.0 9.0
 1  1 1 2 103   0  8.354344e+02 -2.353631e+03 -8.282977e+02  2.631275e+03 0.0047 0.0 9.0
22  1 1 2   0   0 -8.354344e+02  2.353631e+03 -2.564403e+02  2.510636e+03 0.0 0.0 9.0
#pdf 21 1 3.120902e-01 4.789730e-01 5000.0 3.108151e-02 3.754194e-03
</event>
<event>
4 7 1.0 5000.0 7.905138e-03 7.739137e-02
 1 -1 0 0 101   0  0.000000e+00  0.000000e+00  2.004258e+03  2.004258e+03 0.0 0.0 9.0
21 -1 0 0 103 101  0.000000e+00  0.000000e+00 -3.132274e+03  3.132274e+03 0.0 0.0 9.0
22  1 1 2   0   0 -1.771007e+03 -2.860481e+02 -2.356946e+03  2.962007e+03 0.0 0.0 9.0
 1  1 1 2 103   0  1.771007e+03  2.860481e+02  1.228931e+03  2.174525e+03 0.0047 0.0 9.0
#pdf 1 21 3.083474e-01 4.818883e-01 5000.0 8.739795e-02 1.996445e-02
</event>
<event>
4 7 1.0 5000.0 7.905138e-03 7.739137e-02
 1 -1 0 0 101   0  0.000000e+00  0.000000e+00  3.497227e+03  3.497227e+03 0.0 0.0 9.0
21 -1 0 0 103 101  0.000000e+00  0.000000e+00 -1.775679e+03  1.775679e+03 0.0 0.0 9.0
22  1 1 2   0   0  9.438344e+01 -2.073472e+03  2.319768e+03  3.112799e+03 0.0 0.0 9.0
 1  1 1 2 103   0 -9.438344e+01  2.073472e+03 -5.982199e+02  2.160107e+03 0.0047 0.0 9.0
#pdf 1 21 5.380350e-01 2.731813e-01 5000.0 1.070970e-02 1.108209e-01
</event>
<event>
4 7 1.0 5000.0 7.905138e-03 7.739137e-02
21 -1 0 0 103 101  0.000000e+00  0.000000e+00  2.063001e+03  2.063001e+03 0.0 0.0 9.0
 1 -1 0 0 101   0  0.000000e+00  0.000000e+00 -3.341883e+03  3.341883e+03 0.0 0.0 9.0
22  1 1 2   0   0  1.131932e+03  2.307324e+03 -1.193023e+03  2.833428e+03 0.0 0.0 9.0
 1  1 1 2 103   0 -1.131932e+03 -2.307324e+03 -8.585901e+01  2.571456e+03 0.0047 0.0 9.0
#pdf 21 1 3.173848e-01 5.141358e-01 5000.0 2.911205e-02 2.315732e-03
</event>
<event>
4 7 1.0 5000.0 7.905138e-03 7.739137e-02
21 -1 0 0 103 101  0.000000e+00  0.000000e+00  2.327640e+03  2.327640e+03 0.0 0.0 9.0
 1 -1 0 0 101   0  0.000000e+00  0.000000e+00 -3.039496e+03  3.039496e+03 0.0 0.0 9.0
 1  1 1 2 103   0  7.057927e+02 -3.678941e+02  2.204678e+03  2.343948e+03 0.0047 0.0 9.0
22  1 1 2   0   0 -7.057927e+02  3.678941e+02 -2.916535e+03  3.023188e+03 0.0 0.0 9.0
#pdf 21 1 3.580984e-01 4.676148e-01 5000.0 1.765522e-02 4.371326e-03
</event>
<event>
4 7 1.0 5000.0 7.905138e-03 7.739137e-02
 1 -1 0 0 101   0  0.000000e+00  0.000000e+00  2.132868e+03  2.132868e+03 0.0 0.0 9.0
21 -1 0 0 103 101  0.000000e+00  0.000000e+00 -2.898406e+03  2.898406e+03 0.0 0.0 9.0
 1  1 1 2 103   0 -7.281957e+02  2.104190e+03  7.366249e+02  2.345315e+03 0.0047 0.0 9.0
22  1 1 2   0   0  7.281957e+02 -2.104190e+03 -1.502163e+03  2.685959e+03 0.0 0.0 9.0
#pdf 1 21 3.281336e-01 4.459086e-01 5000.0 7.586723e-02 2.849533e-02
</event>
<event>
4 7 1.0 5000.0 7.905138e-03 7.739137e-02
21 -1 0 0 103 101  0.000000e+00  0.000000e+00  2.827085e+03  2.827085e+03 0.0 0.0 9.0
 1 -1 0 0 101   0  0.000000e+00  0.000000e+00 -2.134561e+03  2.134561e+03 0.0 0.0 9.0
22  1 1 2   0   0  4.554003e+02  8.921765e+02 -1.918949e+03  2.164655e+03 0.0 0.0 9.0
 1  1 1 2 103   0 -4.554003e+02 -8.921765e+02  2.611473e+03  2.796991e+03 0.0047 0.0 9.0
#pdf 21 1 4.349362e-01 3.283940e-01 5000.0 6.714085e-03 2.544145e-02
</event>
<event>
4 7 1.0 5000.0 7.905138e-03 7.739137e-02
 1 -1 0 0 101   0  0.000000e+00  0.000000e+00  1.904420e+03  1.904420e+03 0.0 0.0 9.0
21 -1 0 0 103 101  0.000000e+00  0.000000e+00 -3.232804e+03  3.232804e+03 0.0 0.0 9.0
 1  1 1 2 103   0  8.689435e+01  2.205224e+03  5.097776e+02  2.265047e+03 0.0047 0.0 9.0
22  1 1 2   0   0 -8.689435e+01 -2.205224e+03 -1.838161e+03  2.872177e+03 0.0 0.0 9.0
#pdf 1 21 2.929877e-01 4.973545e-01 5000.0 9.715716e-02 1.696559e-02
</event>
<event>
4 7 1.0 5000.0 7.905138e-03 7.739137e-02
21 -1 0 0 103 101  0.000000e+00  0.000000e+00  3.583905e+03  3.583905e+03 0.0 0.0 9.0
 1 -1 0 0 101   0  0.000000e+00  0.000000e+00 -1.740603e+03  1.740603e+03 0.0 0.0 9.0
22  1 1 2   0   0 -6.171118e+02 -3.542551e+02  3.473577e+03  3.545710e+03 0.0 0.0 9.0
 1  1 1 2 103   0  6.171118e+02  3.542551e+02 -1.630275e+03  1.778797e+03 0.0047 0.0 9.0
#pdf 21 1 5.513700e-01 2.677851e-01 5000.0 1.353825e-03 5.348445e-02
</event>
<event>
4 7 1.0 5000.0 7.905138e-03 7.739137e-02
 1 -1 0 0 101   0  0.000000e+00  0.000000e+00  2.220612e+03  2.220612e+03 0.0 0.0 9.0
21 -1 0 0 103 101  0.000000e+00  0.000000e+00 -2.704953e+03  2.704953e+03 0.0 0.0 9.0
22  1 1 2   0   0 -1.537649e+03  4.402631e+02 -2.108215e+03  2.646275e+03 0.0 0.0 9.0
 1  1 1 2 103   0  1.537649e+03 -4.402631e+02  1.623875e+03  2.279291e+03 0.0047 0.0 9.0
#pdf 1 21 3.416327e-01 4.161466e-01 5000.0 6.865834e-02 3.742398e-02
</event>
<event>
4 7 1.0 5000.0 7.905138e-03 7.739137e-02
 1 -1 0 0 101   0  0.000000e+00  0.000000e+00  2.092013e+03  2.092013e+03 0.0 0.0 9.0
21 -1 0 0 103 101  0.000000e+00  0.000000e+00 -2.874237e+03  2.874237e+03 0.0 0.0 9.0
22  1 1 2   0   0  1.559351e+03 -7.427584e+02 -2.153710e+03  2.760748e+03 0.0 0.0 9.0
 1  1 1 2 103   0 -1.559351e+03  7.427584e+02  1.371486e+03  2.205502e+03 0.0047 0.0 9.0
#pdf 1 21 3.218482e-01 4.421903e-01 5000.0 7.940416e-02 2.952510e-02
</event>
<event>
4 7 1.0 5000.0 7.905138e-03 7.739137e-02
21 -1 0 0 103 101  0.000000e+00  0.000000e+00  1.817932e+03  1.817932e+03 0.0 0.0 9.0
 1 -1 0 0 101   0  0.000000e+00  0.000000e+00 -3.433759e+03  3.433759e+03 0.0 0.0 9.0
 1  1 1 2 103   0  1.834677e+03  2.880003e+01 -2.590087e+03  3.174180e+03 0.0047 0.0 9.0
22  1 1 2   0   0 -1.834677e+03 -2.880003e+01  9.742591e+02  2.077511e+03 0.0 0.0 9.0
#pdf 21 1 2.796818e-01 5.282707e-01 5000.0 4.620559e-02 1.896265e-03
</event>
<event>
4 7 1.0 5000.0 7.905138e-03 7.739137e-02
21 -1 0 0 103 101  0.000000e+00  0.000000e+00  2.307459e+03  2.307459e+03 0.0 0.0 9.0
 1 -1 0 0 101   0  0.000000e+00  0.000000e+00 -2.598649e+03  2.598649e+03 0.0 0.0 9.0
22  1 1 2   0   0  2.046206e+03 -6.835893e+02  1.014908e+03  2.384175e+03 0.0 0.0 9.0
 1  1 1 2 103   0 -2.046206e+03  6.835893e+02 -1.306098e+03  2.521933e+03 0.0047 0.0 9.0
#pdf 21 1 3.549937e-01 3.997921e-01 5000.0 1.834580e-02 1.050723e-02
</event>
<event>
4 7 1.0 5000.0 7.905138e-03 7.739137e-02
21 -1 0 0 103 101  0.000000e+00  0.000000e+00  2.585428e+03  2.585428e+03 0.0 0.0 9.0
 1 -1 0 0 101   0  0.000000e+00  0.000000e+00 -2.387431e+03  2.387431e+03 0.0 0.0 9.0
22  1 1 2   0   0 -2.271866e+03 -9.157722e+02 -3.166828e+02  2.469879e+03 0.0 0.0 9.0
 1  1 1 2 103   0  2.271866e+03  9.157722e+02  5.146792e+02  2.502980e+03 0.0047 0.0 9.0
#pdf 21 1 3.977581e-01 3.672971e-01 5000.0 1.077934e-02 1.576141e-02
</event>
<event>
4 7 1.0 5000.0 7.905138e-03 7.739137e-02
 1 -1 0 0 101   0  0.000000e+00  0.000000e+00  3.194214e+03  3.194214e+03 0.0 0.0 9.0
21 -1 0 0 103 101  0.000000e+00  0.000000e+00 -1.927574e+03  1.927574e+03 0.0 0.0 9.0
22  1 1 2   0   0 -2.283415e+03 -6.948316e+02 -6.688932e+01  2.387729e+03 0.0 0.0 9.0
 1  1 1 2 103   0  2.283415e+03  6.948316e+02  1.333529e+03  2.734058e+03 0.0047 0.0 9.0
#pdf 1 21 4.914175e-01 2.965498e-01 5000.0 1.807275e-02 9.482697e-02
</event>
<event>
4 7 1.0 5000.0 7.905138e-03 7.739137e-02
21 -1 0 0 103 101  0.000000e+00  0.000000e+00  3.071074e+03  3.071074e+03 0.0 0.0 9.0
 1 -1 0 0 101   0  0.000000e+00  0.000000e+00 -1.995739e+03  1.995739e+03 0.0 0.0 9.0
 1  1 1 2 103   0 -4.672059e+02 -2.739201e+02 -1.934377e+03  2.008762e+03 0.0047 0.0 9.0
22  1 1 2   0   0  4.672059e+02  2.739201e+02  3.009711e+03  3.058051e+03 0.0 0.0 9.0
#pdf 21 1 4.724729e-01 3.070368e-01 5000.0 4.097228e-03 3.308024e-02
</event>
<event>
4 7 1.0 5000.0 7.905138e-03 7.739137e-02
 1 -1 0 0 101   0  0.000000e+00  0.000000e+00  2.754822e+03  2.754822e+03 0.0 0.0 9.0
21 -1 0 0 103 101  0.000000e+00  0.000000e+00 -2.225167e+03  2.225167e+03 0.0 0.0 9.0
 1  1 1 2 103   0  1.132925e+03 -2.144499e+03 -2.355483e+02  2.436776e+03 0.0047 0.0 9.0
22  1 1 2   0   0 -1.132925e+03  2.144499e+03  7.652028e+02  2.543213e+03 0.0 0.0 9.0
#pdf 1 21 4.238187e-01 3.423334e-01 5000.0 3.494720e-02 6.829837e-02
</event>
<event>
4 7 1.0 5000.0 7.905138e-03 7.739137e-02
21 -1 0 0 103 101  0.000000e+00  0.000000e+00  2.942811e+03  2.942811e+03 0.0 0.0 9.0
 1 -1 0 0 101   0  0.000000e+00  0.000000e+00 -2.106654e+03  2.106654e+03 0.0 0.0 9.0
 1  1 1 2 103   0 -1.861838e+03  1.275839e+03  1.484118e+03  2.701261e+03 0.0047 0.0 9.0
22  1 1 2   0   0  1.861838e+03 -1.275839e+03 -6.479609e+02  2.348203e+03 0.0 0.0 9.0
#pdf 21 1 4.527402e-01 3.241006e-01 5000.0 5.324331e-03 2.681294e-02
</event>
<event>
4 7 1.0 5000.0 7.905138e-03 7.739137e-02
 1 -1 0 0 101   0  0.000000e+00  0.000000e+00  2.179024e+03  2.179024e+03 0.0 0.0 9.0
21 -1 0 0 103 101  0.000000e+00  0.000000e+00 -2.947294e+03  2.947294e+03 0.0 0.0 9.0
 1  1 1 2 103   0 -5.201893e+01 -1.111740e+03  1.918613e+03  2.218051e+03 0.0047 0.0 9.0
22  1 1 2   0   0  5.201893e+01  1.111740e+03 -2.686884e+03  2.908267e+03 0.0 0.0 9.0
#pdf 1 21 3.352344e-01 4.534299e-01 5000.0 7.200883e-02 2.652779e-02
</event>
<event>
4 7 1.0 5000.0 7.905138e-03 7.739137e-02
 1 -1 0 0 101   0  0.000000e+00  0.000000e+00  2.568791e+03  2.568791e+03 0.0 0.0 9.0
21 -1 0 0 103 101  0.000000e+00  0.000000e+00 -2.404022e+03  2.404022e+03 0.0 0.0 9.0
22  1 1 2   0   0  9.719036e+02  6.894087e+02 -2.099535e+03  2.414110e+03 0.0 0.0 9.0
 1  1 1 2 103   0 -9.719036e+02 -6.894087e+02  2.264305e+03  2.558702e+03 0.0047 0.0 9.0
#pdf 1 21 3.951987e-01 3.698495e-01 5000.0 4.484839e-02 5.518973e-02
</event>
<event>
4 7 1.0 5000.0 7.905138e-03 7.739137e-02
 1 -1 0 0 101   0  0.000000e+00  0.000000e+00  2.853512e+03  2.853512e+03 0.0 0.0 9.0
21 -1 0 0 103 101  0.000000e+00  0.000000e+00 -2.216782e+03  2.216782e+03 0.0 0.0 9.0
 1  1 1 2 103   0  4.382082e+02  2.339947e+03  1.136157e+03  2.637846e+03 0.0047 0.0 9.0
22  1 1 2   0   0 -4.382082e+02 -2.339947e+03 -4.994261e+02  2.432448e+03 0.0 0.0 9.0
#pdf 1 21 4.390019e-01 3.410433e-01 5000.0 3.042209e-02 6.896213e-02
</event>
<event>
4 7 1.0 5000.0 7.905138e-03 7.739137e-02
21 -1 0 0 103 101  0.000000e+00  0.000000e+00  2.817766e+03  2.817766e+03 0.0 0.0 9.0
 1 -1 0 0 101   0  0.000000e+00  0.000000e+00 -2.203851e+03  2.203851e+03 0.0 0.0 9.0
22  1 1 2   0   0 -2.744661e+02 -6.568197e+02 -2.099227e+03  2.216642e+03 0.0 0.0 9.0
 1  1 1 2 103   0  2.744661e+02  6.568197e+02  2.713143e+03  2.804975e+03 0.0047 0.0 9.0
#pdf 21 1 4.335025e-01 3.390540e-01 5000.0 6.838135e-03 2.232016e-02
</event>
<event>
4 7 1.0 5000.0 7.905138e-03 7.739137e-02
21 -1 0 0 103 101  0.000000e+00  0.000000e+00  1.854032e+03  1.854032e+03 0.0 0.0 9.0
 1 -1 0 0 101   0  0.000000e+00  0.000000e+00 -2.618755e+03  2.618755e+03 0.0 0.0 9.0
22  1 1 2   0   0 -1.628873e+03  7.764399e+02  9.011198e+02  2.016954e+03 0.0 0.0 9.0
 1  1 1 2 103   0  1.628873e+03 -7.764399e+02 -1.665842e+03  2.455833e+03 0.0047 0.0 9.0
#pdf 21 1 2.852357e-01 4.028853e-01 5000.0 4.316036e-02 1.010581e-02
</event>
<event>
4 7 1.0 5000.0 7.905138e-03 7.739137e-02
21 -1 0 0 103 101  0.000000e+00  0.000000e+00  1.988233e+03  1.988233e+03 0.0 0.0 9.0
 1 -1 0 0 101   0  0.000000e+00  0.000000e+00 -3.099911e+03  3.099911e+03 0.0 0.0 9.0
22  1 1 2   0   0  1.332137e+03 -1.107510e+03  1.266438e+03  2.145933e+03 0.0 0.0 9.0
 1  1 1 2 103   0 -1.332137e+03  1.107510e+03 -2.378115e+03  2.942210e+03 0.0047 0.0 9.0
#pdf 21 1 3.058820e-01 4.769093e-01 5000.0 3.355029e-02 3.860268e-03
</event>
<event>
4 7 1.0 5000.0 7.905138e-03 7.739137e-02
 1 -1 0 0 101   0  0.000000e+00  0.000000e+00  2.591182e+03  2.591182e+03 0.0 0.0 9.0
21 -1 0 0 103 101  0.000000e+00  0.000000e+00 -2.428612e+03  2.428612e+03 0.0 0.0 9.0
22  1 1 2   0   0 -1.074008e+03 -2.082298e+03  9.781460e+02  2.538943e+03 0.0 0.0 9.0
 1  1 1 2 103   0  1.074008e+03  2.082298e+03 -8.155761e+02  2.480851e+03 0.0047 0.0 9.0
#pdf 1 21 3.986434e-01 3.736326e-01 5000.0 4.355907e-02 5.355303e-02
</event>
<event>
4 7 1.0 5000.0 7.905138e-03 7.739137e-02
21 -1 0 0 103 101  0.000000e+00  0.000000e+00  3.936114e+03  3.936114e+03 0.0 0.0 9.0
 1 -1 0 0 101   0  0.000000e+00  0.000000e+00 -1.366108e+03  1.366108e+03 0.0 0.0 9.0
 1  1 1 2 103   0  1.633926e+03 -1.342343e+02  3.159917e+03  3.559888e+03 0.0047 0.0 9.0
22  1 1 2   0   0 -1.633926e+03  1.342343e+02 -5.899110e+02  1.742334e+03 0.0 0.0 9.0
#pdf 21 1 6.055560e-01 2.101705e-01 5000.0 5.872227e-04 1.102792e-01
</event>
<event>
4 7 1.0 5000.0 7.905138e-03 7.739137e-02
 1 -1 0 0 101   0  0.000000e+00  0.000000e+00  2.062055e+03  2.062055e+03 0.0 0.0 9.0
21 -1 0 0 103 101  0.000000e+00  0.000000e+00 -3.042071e+03  3.042071e+03 0.0 0.0 9.0
 1  1 1 2 103   0  1.747380e+03 -3.534753e+01 -2.317990e+03  2.903044e+03 0.0047 0.0 9.0
22  1 1 2   0   0 -1.747380e+03  3.534753e+01  1.337974e+03  2.201082e+03 0.0 0.0 9.0
#pdf 1 21 3.172393e-01 4.680109e-01 5000.0 8.206816e-02 2.298850e-02
</event>
<event>
4 7 1.0 5000.0 7.905138e-03 7.739137e-02
21 -1 0 0 103 101  0.000000e+00  0.000000e+00  1.977413e+03  1.977413e+03 0.0 0.0 9.0
 1 -1 0 0 101   0  0.000000e+00  0.000000e+00 -3.041289e+03  3.041289e+03 0.0 0.0 9.0
 1  1 1 2 103   0  2.217726e+03  2.318079e+02 -1.576379e+03  2.730754e+03 0.0047 0.0 9.0
22  1 1 2   0   0 -2.217726e+03 -2.318079e+02  5.125028e+02  2.287948e+03 0.0 0.0 9.0
#pdf 21 1 3.042173e-01 4.678906e-01 5000.0 3.423506e-02 4.355344e-03
</event>
<event>
4 7 1.0 5000.0 7.905138e-03 7.739137e-02
21 -1 0 0 103 101  0.000000e+00  0.000000e+00  4.274814e+03  4.274814e+03 0.0 0.0 9.0
 1 -1 0 0 101   0  0.000000e+00  0.000000e+00 -1.440966e+03  1.440966e+03 0.0 0.0 9.0
 1  1 1 2 103   0 -2.032111e+03 -1.417064e+03  1.588949e+03  2.943179e+03 0.0047 0.0 9.0
22  1 1 2   0   0  2.032111e+03  1.417064e+03  1.244899e+03  2.772601e+03 0.0 0.0 9.0
#pdf 21 1 6.576637e-01 2.216872e-01 5000.0 2.419371e-04 9.519657e-02
</event>
<event>
4 7 1.0 5000.0 7.905138e-03 7.739137e-02
 1 -1 0 0 101   0  0.000000e+00  0.000000e+00  3.384371e+03  3.384371e+03 0.0 0.0 9.0
21 -1 0 0 103 101  0.000000e+00  0.000000e+00 -1.853144e+03  1.853144e+03 0.0 0.0 9.0
22  1 1 2   0   0 -3.682577e+02 -2.474353e+03  8.879702e+02  2.654530e+03 0.0 0.0 9.0
 1  1 1 2 103   0  3.682577e+02  2.474353e+03  6.432569e+02  2.582986e+03 0.0047 0.0 9.0
#pdf 1 21 5.206725e-01 2.850991e-01 5000.0 1.311214e-02 1.024461e-01
</event>
<event>
4 7 1.0 5000.0 7.905138e-03 7.739137e-02
21 -1 0 0 103 101  0.000000e+00  0.000000e+00  2.288631e+03  2.288631e+03 0.0 0.0 9.0
 1 -1 0 0 101   0  0.000000e+00  0.000000e+00 -2.740614e+03  2.740614e+03 0.0 0.0 9.0
 1  1 1 2 103   0 -4.305840e+02 -1.704611e+03  1.564834e+03  2.353680e+03 0.0047 0.0 9.0
22  1 1 2   0   0  4.305840e+02  1.704611e+03 -2.016816e+03  2.675566e+03 0.0 0.0 9.0
#pdf 21 1 3.520972e-01 4.216329e-01 5000.0 1.902020e-02 7.962550e-03
</event>
<event>
4 7 1.0 5000.0 7.905138e-03 7.739137e-02
 1 -1 0 0 101   0  0.000000e+00  0.000000e+00  1.705028e+03  1.705028e+03 0.0 0.0 9.0
21 -1 0 0 103 101  0.000000e+00  0.000000e+00 -3.635682e+03  3.635682e+03 0.0 0.0 9.0
 1  1 1 2 103   0  2.059104e+03  1.091424e+03 -1.905138e+03  3.010094e+03 0.0047 0.0 9.0
22  1 1 2   0   0 -2.059104e+03 -1.091424e+03 -2.551574e+01  2.330615e+03 0.0 0.0 9.0
#pdf 1 21 2.623120e-01 5.593357e-01 5000.0 1.188659e-01 8.256297e-03
</event>
<event>
4 7 1.0 5000.0 7.905138e-03 7.739137e-02
 1 -1 0 0 101   0  0.000000e+00  0.000000e+00  2.671704e+03  2.671704e+03 0.0 0.0 9.0
21 -1 0 0 103 101  0.000000e+00  0.000000e+00 -2.048069e+03  2.048069e+03 0.0 0.0 9.0
 1  1 1 2 103   0 -1.938579e+03  5.830408e+02 -8.706469e+02  2.203645e+03 0.0047 0.0 9.0
22  1 1 2   0   0  1.938579e+03 -5.830408e+02  1.494281e+03  2.516128e+03 0.0 0.0 9.0
#pdf 1 21 4.110313e-01 3.150876e-01 5000.0 3.914601e-02 8.333459e-02
</event>
<event>
4 7 1.0 5000.0 7.905138e-03 7.739137e-02
 1 -1 0 0 101   0  0.000000e+00  0.000000e+00  2.436381e+03  2.436381e+03 0.0 0.0 9.0
21 -1 0 0 103 101  0.000000e+00  0.000000e+00 -2.675867e+03  2.675867e+03 0.0 0.0 9.0
22  1 1 2   0   0 -2.238177e+03 -3.467191e+01 -1.349424e+03  2.613729e+03 0.0 0.0 9.0
 1  1 1 2 103   0  2.238177e+03  3.467191e+01  1.109938e+03  2.498519e+03 0.0047 0.0 9.0
#pdf 1 21 3.748279e-01 4.116719e-01 5000.0 5.304436e-02 3.892724e-02
</event>
<event>
4 7 1.0 5000.0 7.905138e-03 7.739137e-02
 1 -1 0 0 101   0  0.000000e+00  0.000000e+00  3.188194e+03  3.188194e+03 0.0 0.0 9.0
21 -1 0 0 103 101  0.000000e+00  0.000000e+00 -1.799643e+03  1.799643e+03 0.0 0.0 9.0
 1  1 1 2 103   0  1.429997e+03  1.389187e+03  2.076657e+03  2.878756e+03 0.0047 0.0 9.0
22  1 1 2   0   0 -1.429997e+03 -1.389187e+03 -6.881068e+02  2.109081e+03 0.0 0.0 9.0
#pdf 1 21 4.904914e-01 2.768682e-01 5000.0 1.825028e-02 1.081786e-01
</event>
<event>
4 7 1.0 5000.0 7.905138e-03 7.739137e-02
 1 -1 0 0 101   0  0.000000e+00  0.000000e+00  1.898215e+03  1.898215e+03 0.0 0.0 9.0
21 -1 0 0 103 101  0.000000e+00  0.000000e+00 -3.197394e+03  3.197394e+03 0.0 0.0 9.0
22  1 1 2   0   0 -1.326756e+03 -1.454317e+03 -2.181439e+03  2.938366e+03 0.0 0.0 9.0
 1  1 1 2 103   0  1.326756e+03  1.454317e+03  8.822595e+02  2.157244e+03 0.0047 0.0 9.0
#pdf 1 21 2.920331e-01 4.919068e-01 5000.0 9.778751e-02 1.797949e-02
</event>
<event>
4 7 1.0 5000.0 7.905138e-03 7.739137e-02
21 -1 0 0 103 101  0.000000e+00  0.000000e+00  2.664328e+03  2.664328e+03 0.0 0.0 9.0
 1 -1 0 0 101   0  0.000000e+00  0.000000e+00 -2.369056e+03  2.369056e+03 0.0 0.0 9.0
 1  1 1 2 103   0  9.794994e+02  1.887995e+03 -1.191832e+03  2.438115e+03 0.0047 0.0 9.0
22  1 1 2   0   0 -9.794994e+02 -1.887995e+03  1.487103e+03  2.595269e+03 0.0 0.0 9.0
#pdf 21 1 4.098966e-01 3.644702e-01 5000.0 9.245959e-03 1.632744e-02
</event>
<event>
4 7 1.0 5000.0 7.905138e-03 7.739137e-02
21 -1 0 0 103 101  0.000000e+00  0.000000e+00  2.162933e+03  2.162933e+03 0.0 0.0 9.0
 1 -1 0 0 101   0  0.000000e+00  0.000000e+00 -2.840084e+03  2.840084e+03 0.0 0.0 9.0
 1  1 1 2 103   0  1.486126e+03  1.532607e+03 -1.609420e+03  2.673515e+03 0.0047 0.0 9.0
22  1 1 2   0   0 -1.486126e+03 -1.532607e+03  9.322680e+02  2.329501e+03 0.0 0.0 9.0
#pdf 21 1 3.327589e-01 4.369360e-01 5000.0 2.411672e-02 6.544359e-03
</event>
<event>
4 7 1.0 5000.0 7.905138e-03 7.739137e-02
21 -1 0 0 103 101  0.000000e+00  0.000000e+00  2.031514e+03  2.031514e+03 0.0 0.0 9.0
 1 -1 0 0 101   0  0.000000e+00  0.000000e+00 -3.064505e+03  3.064505e+03 0.0 0.0 9.0
22  1 1 2   0   0  5.527257e+02  1.808143e+03 -2.179109e+03  2.885031e+03 0.0 0.0 9.0
 1  1 1 2 103   0 -5.527257e+02 -1.808143e+03  1.146118e+03  2.210989e+03 0.0047 0.0 9.0
#pdf 21 1 3.125406e-01 4.714623e-01 5000.0 3.090857e-02 4.152957e-03
</event>
<event>
4 7 1.0 5000.0 7.905138e-03 7.739137e-02
21 -1 0 0 103 101  0.000000e+00  0.000000e+00  1.511992e+03  1.511992e+03 0.0 0.0 9.0
 1 -1 0 0 101   0  0.000000e+00  0.000000e+00 -4.164526e+03  4.164526e+03 0.0 0.0 9.0
 1  1 1 2 103   0  3.920998e+02  7.582093e+02 -3.995265e+03  4.085433e+03 0.0047 0.0 9.0
22  1 1 2   0   0 -3.920998e+02 -7.582093e+02  1.342731e+03  1.591084e+03 0.0 0.0 9.0
#pdf 21 1 2.326141e-01 6.406963e-01 5000.0 8.289048e-02 3.260963e-04
</event>
<event>
4 7 1.0 5000.0 7.905138e-03 7.739137e-02
 1 -1 0 0 101   0  0.000000e+00  0.000000e+00  2.178014e+03  2.178014e+03 0.0 0.0 9.0
21 -1 0 0 103 101  0.000000e+00  0.000000e+00 -2.838913e+03  2.838913e+03 0.0 0.0 9.0
 1  1 1 2 103   0  1.430660e+03 -4.536197e+02  1.669562e+03  2.244994e+03 0.0047 0.0 9.0
22  1 1 2   0   0 -1.430660e+03  4.536197e+02 -2.330462e+03  2.771933e+03 0.0 0.0 9.0
#pdf 1 21 3.350791e-01 4.367559e-01 5000.0 7.209164e-02 3.106269e-02
</event>
<event>
4 7 1.0 5000.0 7.905138e-03 7.739137e-02
21 -1 0 0 103 101  0.000000e+00  0.000000e+00  2.092656e+03  2.092656e+03 0.0 0.0 9.0
 1 -1 0 0 101   0  0.000000e+00  0.000000e+00 -2.772310e+03  2.772310e+03 0.0 0.0 9.0
22  1 1 2   0   0  1.485531e+03  1.336073e+03 -1.698362e+03  2.622275e+03 0.0 0.0 9.0
 1  1 1 2 103   0 -1.485531e+03 -1.336073e+03  1.018709e+03  2.242691e+03 0.0047 0.0 9.0
#pdf 21 1 3.219471e-01 4.265092e-01 5000.0 2.752866e-02 7.479408e-03
</event>
<event>
4 7 1.0 5000.0 7.905138e-03 7.739137e-02
 1 -1 0 0 101   0  0.000000e+00  0.000000e+00  2.464729e+03  2.464729e+03 0.0 0.0 9.0
21 -1 0 0 103 101  0.000000e+00  0.000000e+00 -2.221949e+03  2.221949e+03 0.0 0.0 9.0
22  1 1 2   0   0 -2.100078e+03 -1.030897e+03  1.800302e+02  2.346377e+03 0.0 0.0 9.0
 1  1 1 2 103   0  2.100078e+03  1.030897e+03  6.275016e+01  2.340302e+03 0.0047 0.0 9.0
#pdf 1 21 3.791891e-01 3.418383e-01 5000.0 5.121058e-02 6.855256e-02
</event>
<event>
4 7 1.0 5000.0 7.905138e-03 7.739137e-02
21 -1 0 0 103 101  0.000000e+00  0.000000e+00  3.011500e+03  3.011500e+03 0.0 0.0 9.0
 1 -1 0 0 101   0  0.000000e+00  0.000000e+00 -2.127991e+03  2.127991e+03 0.0 0.0 9.0
22  1 1 2   0   0 -3.831811e+02  2.501430e+03  3.739080e+02  2.558082e+03 0.0 0.0 9.0
 1  1 1 2 103   0  3.831811e+02 -2.501430e+03  5.096008e+02  2.581409e+03 0.0047 0.0 9.0
#pdf 21 1 4.633077e-01 3.273833e-01 5000.0 4.627823e-03 2.575794e-02
</event>
<event>
4 7 1.0 5000.0 7.905138e-03 7.739137e-02
 1 -1 0 0 101   0  0.000000e+00  0.000000e+00  2.453618e+03  2.453618e+03 0.0 0.0 9.0
21 -1 0 0 103 101  0.000000e+00  0.000000e+00 -2.548576e+03  2.548576e+03 0.0 0.0 9.0
22  1 1 2   0   0 -7.322225e+02  1.263633e+03  1.982742e+03  2.462557e+03 0.0 0.0 9.0
 1  1 1 2 103   0  7.322225e+02 -1.263633e+03 -2.077700e+03  2.539637e+03 0.0047 0.0 9.0
#pdf 1 21 3.774797e-01 3.920886e-01 5000.0 5.192500e-02 4.603556e-02
</event>
<event>
4 7 1.0 5000.0 7.905138e-03 7.739137e-02
21 -1 0 0 103 101  0.000000e+00  0.000000e+00  2.247205e+03  2.247205e+03 0.0 0.0 9.0
 1 -1 0 0 101   0  0.000000e+00  0.000000e+00 -2.776867e+03  2.776867e+03 0.0 0.0 9.0
22  1 1 2   0   0 -1.204086e+03  1.765621e+03 -1.565505e+03  2.649159e+03 0.0 0.0 9.0
 1  1 1 2 103   0  1.204086e+03 -1.765621e+03  1.035843e+03  2.374913e+03 0.0047 0.0 9.0
#pdf 21 1 3.457238e-01 4.272103e-01 5000.0 2.057140e-02 7.412005e-03
</event>
<event>
4 7 1.0 5000.0 7.905138e-03 7.739137e-02
 1 -1 0 0 101   0  0.000000e+00  0.000000e+00  1.708743e+03  1.708743e+03 0.0 0.0 9.0
21 -1 0 0 103 101  0.000000e+00  0.000000e+00 -3.632405e+03  3.632405e+03 0.0 0.0 9.0
22  1 1 2   0   0 -2.125590e+03 -8.253024e+02  1.141665e+02  2.283044e+03 0.0 0.0 9.0
 1  1 1 2 103   0  2.125590e+03  8.253024e+02 -2.037829e+03  3.058104e+03 0.0047 0.0 9.0
#pdf 1 21 2.628835e-01 5.588316e-01 5000.0 1.184335e-01 8.308718e-03
</event>
<event>
4 7 1.0 5000.0 7.905138e-03 7.739137e-02
21 -1 0 0 103 101  0.000000e+00  0.000000e+00  2.328529e+03  2.328529e+03 0.0 0.0 9.0
 1 -1 0 0 101   0  0.000000e+00  0.000000e+00 -2.724182e+03  2.724182e+03 0.0 0.0 9.0
22  1 1 2   0   0 -5.296957e+02  1.377444e+03 -2.245045e+03  2.686663e+03 0.0 0.0 9.0
 1  1 1 2 103   0  5.296957e+02 -1.377444e+03  1.849393e+03  2.366048e+03 0.0047 0.0 9.0
#pdf 21 1 3.582353e-01 4.191049e-01 5000.0 1.762558e-02 8.223616e-03
</event>
<event>
4 7 1.0 5000.0 7.905138e-03 7.739137e-02
 1 -1 0 0 101   0  0.000000e+00  0.000000e+00  2.582697e+03  2.582697e+03 0.0 0.0 9.0
21 -1 0 0 103 101  0.000000e+00  0.000000e+00 -2.345371e+03  2.345371e+03 0.0 0.0 9.0
22  1 1 2   0   0 -2.018131e+03 -1.127902e+03 -7.263366e+02  2.423340e+03 0.0 0.0 9.0
 1  1 1 2 103   0  2.018131e+03  1.127902e+03  9.636626e+02  2.504727e+03 0.0047 0.0 9.0
#pdf 1 21 3.973380e-01 3.608263e-01 5000.0 4.404449e-02 5.927186e-02
</event>
<event>
4 7 1.0 5000.0 7.905138e-03 7.739137e-02
21 -1 0 0 103 101  0.000000e+00  0.000000e+00  2.325407e+03  2.325407e+03 0.0 0.0 9.0
 1 -1 0 0 101   0  0.000000e+00  0.000000e+00 -2.679013e+03  2.679013e+03 0.0 0.0 9.0
22  1 1 2   0   0  1.601037e+03  7.712912e+02 -1.933788e+03  2.626356e+03 0.0 0.0 9.0
 1  1 1 2 103   0 -1.601037e+03 -7.712912e+02  1.580182e+03  2.378063e+03 0.0047 0.0 9.0
#pdf 21 1 3.577549e-01 4.121558e-01 5000.0 1.772991e-02 8.983867e-03
</event>
<event>
4 7 1.0 5000.0 7.905138e-03 7.739137e-02
 1 -1 0 0 101   0  0.000000e+00  0.000000e+00  3.660432e+03  3.660432e+03 0.0 0.0 9.0
21 -1 0 0 103 101  0.000000e+00  0.000000e+00 -1.769814e+03  1.769814e+03 0.0 0.0 9.0
 1  1 1 2 103   0 -8.437590e+02  2.299958e+03  1.681709e+03  2.971511e+03 0.0047 0.0 9.0
22  1 1 2   0   0  8.437590e+02 -2.299958e+03  2.089094e+02  2.458735e+03 0.0 0.0 9.0
#pdf 1 21 5.631434e-01 2.722791e-01 5000.0 7.866440e-03 1.114744e-01
</event>
<event>
4 7 1.0 5000.0 7.905138e-03 7.739137e-02
 1 -1 0 0 101   0  0.000000e+00  0.000000e+00  2.001355e+03  2.001355e+03 0.0 0.0 9.0
21 -1 0 0 103 101  0.000000e+00  0.000000e+00 -3.172030e+03  3.172030e+03 0.0 0.0 9.0
22  1 1 2   0   0  2.502599e+03 -1.394677e+02 -3.217769e+02  2.527052e+03 0.0 0.0 9.0
 1  1 1 2 103   0 -2.502599e+03  1.394677e+02 -8.488981e+02  2.646334e+03 0.0047 0.0 9.0
#pdf 1 21 3.079008e-01 4.880047e-01 5000.0 8.767189e-02 1.873356e-02
</event>
<event>
4 7 1.0 5000.0 7.905138e-03 7.739137e-02
 1 -1 0 0 101   0  0.000000e+00  0.000000e+00  2.251705e+03  2.251705e+03 0.0 0.0 9.0
21 -1 0 0 103 101  0.000000e+00  0.000000e+00 -2.825943e+03  2.825943e+03 0.0 0.0 9.0
22  1 1 2   0   0  2.507238e+03 -2.566726e+02 -1.812378e+02  2.526850e+03 0.0 0.0 9.0
 1  1 1 2 103   0 -2.507238e+03  2.566726e+02 -3.930007e+02  2.550798e+03 0.0047 0.0 9.0
#pdf 1 21 3.464161e-01 4.347605e-01 5000.0 6.622730e-02 3.163881e-02
</event>
<event>
4 7 1.0 5000.0 7.905138e-03 7.739137e-02
21 -1 0 0 103 101  0.000000e+00  0.000000e+00  2.109723e+03  2.109723e+03 0.0 0.0 9.0
 1 -1 0 0 101   0  0.000000e+00  0.000000e+00 -2.819438e+03  2.819438e+03 0.0 0.0 9.0
22  1 1 2   0   0  2.299779e+03 -6.825930e+02 -7.991621e+02  2.528553e+03 0.0 0.0 9.0
 1  1 1 2 103   0 -2.299779e+03  6.825930e+02  8.944674e+01  2.400608e+03 0.0047 0.0 9.0
#pdf 21 1 3.245727e-01 4.337597e-01 5000.0 2.665858e-02 6.815724e-03
</event>
<event>
4 7 1.0 5000.0 7.905138e-03 7.739137e-02
21 -1 0 0 103 101  0.000000e+00  0.000000e+00  1.843901e+03  1.843901e+03 0.0 0.0 9.0
 1 -1 0 0 101   0  0.000000e+00  0.000000e+00 -3.315225e+03  3.315225e+03 0.0 0.0 9.0
22  1 1 2   0   0 -1.959981e+03 -9.599358e+02 -1.947874e+03  2.925272e+03 0.0 0.0 9.0
 1  1 1 2 103   0  1.959981e+03  9.599358e+02  4.765496e+02  2.233854e+03 0.0047 0.0 9.0
#pdf 21 1 2.836771e-01 5.100346e-01 5000.0 4.398861e-02 2.452258e-03
</event>
<event>
4 7 1.0 5000.0 7.905138e-03 7.739137e-02
 1 -1 0 0 101   0  0.000000e+00  0.000000e+00  3.898422e+03  3.898422e+03 0.0 0.0 9.0
21 -1 0 0 103 101  0.000000e+00  0.000000e+00 -1.503291e+03  1.503291e+03 0.0 0.0 9.0
 1  1 1 2 103   0  1.695994e+03  1.671526e+03  7.111689e+02  2.485187e+03 0.0047 0.0 9.0
22  1 1 2   0   0 -1.695994e+03 -1.671526e+03  1.683962e+03  2.916525e+03 0.0 0.0 9.0
#pdf 1 21 5.997572e-01 2.312755e-01 5000.0 4.807703e-03 1.440470e-01
</event>
<event>
4 7 1.0 5000.0 7.905138e-03 7.739137e-02
 1 -1 0 0 101   0  0.000000e+00  0.000000e+00  1.878498e+03  1.878498e+03 0.0 0.0 9.0
21 -1 0 0 103 101  0.000000e+00  0.000000e+00 -3.207763e+03  3.207763e+03 0.0 0.0 9.0
 1  1 1 2 103   0  1.185546e+03  1.133804e+02  1.559140e+03  1.961961e+03 0.0047 0.0 9.0
22  1 1 2   0   0 -1.185546e+03 -1.133804e+02 -2.888404e+03  3.124300e+03 0.0 0.0 9.0
#pdf 1 21 2.889997e-01 4.935020e-01 5000.0 9.980769e-02 1.767800e-02
</event>
<event>
4 7 1.0 5000.0 7.905138e-03 7.739137e-02
 1 -1 0 0 101   0  0.000000e+00  0.000000e+00  1.893084e+03  1.893084e+03 0.0 0.0 9.0
21 -1 0 0 103 101  0.000000e+00  0.000000e+00 -3.358589e+03  3.358589e+03 0.0 0.0 9.0
 1  1 1 2 103   0 -1.587961e+03  8.059200e+01  1.305238e+03  2.057125e+03 0.0047 0.0 9.0
22  1 1 2   0   0  1.587961e+03 -8.059200e+01 -2.770743e+03  3.194548e+03 0.0 0.0 9.0
#pdf 1 21 2.912436e-01 5.167060e-01 5000.0 9.831074e-02 1.371451e-02
</event>
<event>
4 7 1.0 5000.0 7.905138e-03 7.739137e-02
21 -1 0 0 103 101  0.000000e+00  0.000000e+00  4.288623e+03  4.288623e+03 0.0 0.0 9.0
 1 -1 0 0 101   0  0.000000e+00  0.000000e+00 -1.463603e+03  1.463603e+03 0.0 0.0 9.0
22  1 1 2   0   0 -1.337078e+03  2.068337e+03  1.939886e+03  3.135116e+03 0.0 0.0 9.0
 1  1 1 2 103   0  1.337078e+03 -2.068337e+03  8.851340e+02  2.617109e+03 0.0047 0.0 9.0
#pdf 21 1 6.597881e-01 2.251697e-01 5000.0 2.327890e-04 9.104868e-02
</event>
<event>
4 7 1.0 5000.0 7.905138e-03 7.739137e-02
21 -1 0 0 103 101  0.000000e+00  0.000000e+00  4.503707e+03  4.503707e+03 0.0 0.0 9.0
 1 -1 0 0 101   0  0.000000e+00  0.000000e+00 -1.417191e+03  1.417191e+03 0.0 0.0 9.0
 1  1 1 2 103   0  6.861404e+02 -1.829454e+03 -3.334452e+02  1.982139e+03 0.0047 0.0 9.0
22  1 1 2   0   0 -6.861404e+02  1.829454e+03  3.419961e+03  3.938759e+03 0.0 0.0 9.0
#pdf 21 1 6.928780e-01 2.180294e-01 5000.0 1.247522e-04 9.976345e-02
</event>
<event>
4 7 1.0 5000.0 7.905138e-03 7.739137e-02
21 -1 0 0 103 101  0.000000e+00  0.000000e+00  1.789311e+03  1.789311e+03 0.0 0.0 9.0
 1 -1 0 0 101   0  0.000000e+00  0.000000e+00 -3.608893e+03  3.608893e+03 0.0 0.0 9.0
22  1 1 2   0   0 -2.251549e+03  1.420264e+02 -2.152013e+03  3.117820e+03 0.0 0.0 9.0
 1  1 1 2 103   0  2.251549e+03 -1.420264e+02  3.324307e+02  2.280385e+03 0.0047 0.0 9.0
#pdf 21 1 2.752787e-01 5.552144e-01 5000.0 4.877646e-02 1.280294e-03
</event>
<event>
4 7 1.0 5000.0 7.905138e-03 7.739137e-02
 1 -1 0 0 101   0  0.000000e+00  0.000000e+00  2.924203e+03  2.924203e+03 0.0 0.0 9.0
21 -1 0 0 103 101  0.000000e+00  0.000000e+00 -2.124189e+03  2.124189e+03 0.0 0.0 9.0
 1  1 1 2 103   0  6.108340e+02  1.837861e+03  1.988747e+03  2.775962e+03 0.0047 0.0 9.0
22  1 1 2   0   0 -6.108340e+02 -1.837861e+03 -1.188733e+03  2.272430e+03 0.0 0.0 9.0
#pdf 1 21 4.498774e-01 3.267983e-01 5000.0 2.744496e-02 7.660919e-02
</event>
<event>
4 7 1.0 5000.0 7.905138e-03 7.739137e-02
 1 -1 0 0 101   0  0.000000e+00  0.000000e+00  3.520202e+03  3.520202e+03 0.0 0.0 9.0
21 -1 0 0 103 101  0.000000e+00  0.000000e+00 -1.812163e+03  1.812163e+03 0.0 0.0 9.0
 1  1 1 2 103   0 -1.488441e+03  2.431829e+02 -1.284642e+03  1.981136e+03 0.0047 0.0 9.0
22  1 1 2   0   0  1.488441e+03 -2.431829e+02  2.992681e+03  3.351229e+03 0.0 0.0 9.0
#pdf 1 21 5.415695e-01 2.787943e-01 5000.0 1.026715e-02 1.068164e-01
</event>
<event>
4 7 1.0 5000.0 7.905138e-03 7.739137e-02
 1 -1 0 0 101   0  0.000000e+00  0.000000e+00  2.356467e+03  2.356467e+03 0.0 0.0 9.0
21 -1 0 0 103 101  0.000000e+00  0.000000e+00 -2.666091e+03  2.666091e+03 0.0 0.0 9.0
22  1 1 2   0   0 -1.389102e+03  9.594692e+02 -2.011008e+03  2.625708e+03 0.0 0.0 9.0
 1  1 1 2 103   0  1.389102e+03 -9.594692e+02  1.701384e+03  2.396851e+03 0.0047 0.0 9.0
#pdf 1 21 3.625333e-01 4.101679e-01 5000.0 5.848622e-02 3.944232e-02
</event>
<event>
4 7 1.0 5000.0 7.905138e-03 7.739137e-02
21 -1 0 0 103 101  0.000000e+00  0.000000e+00  3.176294e+03  3.176294e+03 0.0 0.0 9.0
 1 -1 0 0 101   0  0.000000e+00  0.000000e+00 -1.423353e+03  1.423353e+03 0.0 0.0 9.0
22  1 1 2   0   0 -2.107745e+03  3.881669e+01  5.765404e+02  2.185519e+03 0.0 0.0 9.0
 1  1 1 2 103   0  2.107745e+03 -3.881669e+01  1.176400e+03  2.414128e+03 0.0047 0.0 9.0
#pdf 21 1 4.886606e-01 2.189774e-01 5000.0 3.291801e-03 9.855945e-02
</event>
<event>
4 7 1.0 5000.0 7.905138e-03 7.739137e-02
 1 -1 0 0 101   0  0.000000e+00  0.000000e+00  2.476386e+03  2.476386e+03 0.0 0.0 9.0
21 -1 0 0 103 101  0.000000e+00  0.000000e+00 -2.507035e+03  2.507035e+03 0.0 0.0 9.0
 1  1 1 2 103   0 -6.614813e+02 -4.218884e+02  2.349639e+03  2.477166e+03 0.0047 0.0 9.0
22  1 1 2   0   0  6.614813e+02  4.218884e+02 -2.380287e+03  2.506255e+03 0.0 0.0 9.0
#pdf 1 21 3.809825e-01 3.856977e-01 5000.0 5.046760e-02 4.854849e-02
</event>
<event>
4 7 1.0 5000.0 7.905138e-03 7.739137e-02
 1 -1 0 0 101   0  0.000000e+00  0.000000e+00  1.725183e+03  1.725183e+03 0.0 0.0 9.0
21 -1 0 0 103 101  0.000000e+00  0.000000e+00 -3.410084e+03  3.410084e+03 0.0 0.0 9.0
22  1 1 2   0   0 -2.307889e+03  5.661808e+02 -1.356834e+03  2.736405e+03 0.0 0.0 9.0
 1  1 1 2 103   0  2.307889e+03 -5.661808e+02 -3.280667e+02  2.398862e+03 0.0047 0.0 9.0
#pdf 1 21 2.654128e-01 5.246282e-01 5000.0 1.165331e-01 1.253371e-02
</event>
<event>
4 7 1.0 5000.0 7.905138e-03 7.739137e-02
21 -1 0 0 103 101  0.000000e+00  0.000000e+00  2.204147e+03  2.204147e+03 0.0 0.0 9.0
 1 -1 0 0 101   0  0.000000e+00  0.000000e+00 -2.646045e+03  2.646045e+03 0.0 0.0 9.0
22  1 1 2   0   0 -2.687300e+01 -1.776936e+03 -1.863030e+03  2.574705e+03 0.0 0.0 9.0
 1  1 1 2 103   0  2.687300e+01  1.776936e+03  1.421133e+03  2.275487e+03 0.0047 0.0 9.0
#pdf 21 1 3.390995e-01 4.070838e-01 5000.0 2.230769e-02 9.583023e-03
</event>
<event>
4 7 1.0 5000.0 7.905138e-03 7.739137e-02
 1 -1 0 0 101   0  0.000000e+00  0.000000e+00  2.851449e+03  2.851449e+03 0.0 0.0 9.0
21 -1 0 0 103 101  0.000000e+00  0.000000e+00 -1.628047e+03  1.628047e+03 0.0 0.0 9.0
22  1 1 2   0   0 -8.700944e+02 -6.564574e+02  2.543724e+03  2.767406e+03 0.0 0.0 9.0
 1  1 1 2 103   0  8.700944e+02  6.564574e+02 -1.320323e+03  1.712090e+03 0.0047 0.0 9.0
#pdf 1 21 4.386844e-01 2.504688e-01 5000.0 3.051216e-02 1.280851e-01
</event>
<event>
4 7 1.0 5000.0 7.905138e-03 7.739137e-02
21 -1 0 0 103 101  0.000000e+00  0.000000e+00  2.931683e+03  2.931683e+03 0.0 0.0 9.0
 1 -1 0 0 101   0  0.000000e+00  0.000000e+00 -2.093088e+03  2.093088e+03 0.0 0.0 9.0
22  1 1 2   0   0 -2.367719e+03  4.920764e+02  9.636217e+02  2.603229e+03 0.0 0.0 9.0
 1  1 1 2 103   0  2.367719e+03 -4.920764e+02 -1.250273e+02  2.421542e+03 0.0047 0.0 9.0
#pdf 21 1 4.510281e-01 3.220136e-01 5000.0 5.444491e-03 2.750629e-02
</event>
<event>
4 7 1.0 5000.0 7.905138e-03 7.739137e-02
21 -1 0 0 103 101  0.000000e+00  0.000000e+00  3.241820e+03  3.241820e+03 0.0 0.0 9.0
 1 -1 0 0 101   0  0.000000e+00  0.000000e+00 -1.858248e+03  1.858248e+03 0.0 0.0 9.0
 1  1 1 2 103   0  1.108533e+03  1.980340e+03 -2.792483e+02  2.286607e+03 0.0047 0.0 9.0
22  1 1 2   0   0 -1.108533e+03 -1.980340e+03  1.662821e+03  2.813461e+03 0.0 0.0 9.0
#pdf 21 1 4.987416e-01 2.858842e-01 5000.0 2.867911e-03 4.282148e-02
</event>
<event>
4 7 1.0 5000.0 7.905138e-03 7.739137e-02
 1 -1 0 0 101   0  0.000000e+00  0.000000e+00  4.163019e+03  4.163019e+03 0.0 0.0 9.0
21 -1 0 0 103 101  0.000000e+00  0.000000e+00 -1.491021e+03  1.491021e+03 0.0 0.0 9.0
22  1 1 2   0   0 -1.417537e+03 -2.149568e+02  3.647995e+03  3.919628e+03 0.0 0.0 9.0
 1  1 1 2 103   0  1.417537e+03  2.149568e+02 -9.759966e+02  1.734412e+03 0.0047 0.0 9.0
#pdf 1 21 6.404645e-01 2.293878e-01 5000.0 2.604629e-03 1.456864e-01
</event>
<event>
4 7 1.0 5000.0 7.905138e-03 7.739137e-02
 1 -1 0 0 101   0  0.000000e+00  0.000000e+00  2.190197e+03  2.190197e+03 0.0 0.0 9.0
21 -1 0 0 103 101  0.000000e+00  0.000000e+00 -2.878344e+03  2.878344e+03 0.0 0.0 9.0
 1  1 1 2 103   0 -1.741172e+02  5.495706e+02  2.122491e+03  2.199390e+03 0.0047 0.0 9.0
22  1 1 2   0   0  1.741172e+02 -5.495706e+02 -2.810638e+03  2.869152e+03 0.0 0.0 9.0
#pdf 1 21 3.369534e-01 4.428222e-01 5000.0 7.109715e-02 2.934885e-02
</event>
<event>
4 7 1.0 5000.0 7.905138e-03 7.739137e-02
 1 -1 0 0 101   0  0.000000e+00  0.000000e+00  2.511822e+03  2.511822e+03 0.0 0.0 9.0
21 -1 0 0 103 101  0.000000e+00  0.000000e+00 -2.710725e+03  2.710725e+03 0.0 0.0 9.0
22  1 1 2   0   0  4.819489e+02 -1.513260e+03 -2.171373e+03  2.690184e+03 0.0 0.0 9.0
 1  1 1 2 103   0 -4.819489e+02  1.513260e+03  1.972470e+03  2.532364e+03 0.0047 0.0 9.0
#pdf 1 21 3.864342e-01 4.170346e-01 5000.0 4.825351e-02 3.713084e-02
</event>
<event>
4 7 1.0 5000.0 7.905138e-03 7.739137e-02
 1 -1 0 0 101   0  0.000000e+00  0.000000e+00  2.975539e+03  2.975539e+03 0.0 0.0 9.0
21 -1 0 0 103 101  0.000000e+00  0.000000e+00 -2.077507e+03  2.077507e+03 0.0 0.0 9.0
 1  1 1 2 103   0 -2.157180e+03 -1.151320e+02 -8.017585e+02  2.304235e+03 0.0047 0.0 9.0
22  1 1 2   0   0  2.157180e+03  1.151320e+02  1.699790e+03  2.748812e+03 0.0 0.0 9.0
#pdf 1 21 4.577752e-01 3.196165e-01 5000.0 2.542952e-02 8.068670e-02
</event>
<event>
4 7 1.0 5000.0 7.905138e-03 7.739137e-02
21 -1 0 0 103 101  0.000000e+00  0.000000e+00  4.742849e+03  4.742849e+03 0.0 0.0 9.0
 1 -1 0 0 101   0  0.000000e+00  0.000000e+00 -1.302175e+03  1.302175e+03 0.0 0.0 9.0
22  1 1 2   0   0 -1.756970e+03 -1.186133e+02 -4.123975e+02  1.808614e+03 0.0 0.0 9.0
 1  1 1 2 103   0  1.756970e+03  1.186133e+02  3.853072e+03  4.236410e+03 0.0047 0.0 9.0
#pdf 21 1 7.296691e-01 2.003346e-01 5000.0 5.824607e-05 1.252687e-01
</event>
<event>
4 7 1.0 5000.0 7.905138e-03 7.739137e-02
 1 -1 0 0 101   0  0.000000e+00  0.000000e+00  2.882178e+03  2.882178e+03 0.0 0.0 9.0
21 -1 0 0 103 101  0.000000e+00  0.000000e+00 -2.116983e+03  2.116983e+03 0.0 0.0 9.0
 1  1 1 2 103   0  1.309698e+03  1.848663e+03 -6.133421e+02  2.347137e+03 0.0047 0.0 9.0
22  1 1 2   0   0 -1.309698e+03 -1.848663e+03  1.378538e+03  2.652024e+03 0.0 0.0 9.0
#pdf 1 21 4.434120e-01 3.256896e-01 5000.0 2.918472e-02 7.722914e-02
</event>
<event>
4 7 1.0 5000.0 7.905138e-03 7.739137e-02
21 -1 0 0 103 101  0.000000e+00  0.000000e+00  2.617092e+03  2.617092e+03 0.0 0.0 9.0
 1 -1 0 0 101   0  0.000000e+00  0.000000e+00 -2.586051e+03  2.586051e+03 0.0 0.0 9.0
 1  1 1 2 103   0  1.709334e+03  1.456904e+03  1.328381e+03  2.609404e+03 0.0047 0.0 9.0
22  1 1 2   0   0 -1.709334e+03 -1.456904e+03 -1.297339e+03  2.593739e+03 0.0 0.0 9.0
#pdf 21 1 4.026296e-01 3.978539e-01 5000.0 1.013846e-02 1.076637e-02
</event>
<event>
4 7 1.0 5000.0 7.905138e-03 7.739137e-02
 1 -1 0 0 101   0  0.000000e+00  0.000000e+00  2.065944e+03  2.065944e+03 0.0 0.0 9.0
21 -1 0 0 103 101  0.000000e+00  0.000000e+00 -2.590909e+03  2.590909e+03 0.0 0.0 9.0
 1  1 1 2 103   0 -2.254680e+03  1.398153e+02 -7.652314e+02  2.385101e+03 0.0047 0.0 9.0
22  1 1 2   0   0  2.254680e+03 -1.398153e+02  2.402670e+02  2.271752e+03 0.0 0.0 9.0
#pdf 1 21 3.178376e-01 3.986013e-01 5000.0 8.171887e-02 4.357465e-02
</event>
<event>
4 7 1.0 5000.0 7.905138e-03 7.739137e-02
 1 -1 0 0 101   0  0.000000e+00  0.000000e+00  2.715020e+03  2.715020e+03 0.0 0.0 9.0
21 -1 0 0 103 101  0.000000e+00  0.000000e+00 -2.187741e+03  2.187741e+03 0.0 0.0 9.0
22  1 1 2   0   0  1.797366e+03  6.572445e+02  1.781504e+03  2.614623e+03 0.0 0.0 9.0
 1  1 1 2 103   0 -1.797366e+03 -6.572445e+02 -1.254225e+03  2.288138e+03 0.0047 0.0 9.0
#pdf 1 21 4.176954e-01 3.365755e-01 5000.0 3.691383e-02 7.129682e-02
</event>
<event>
4 7 1.0 5000.0 7.905138e-03 7.739137e-02
 1 -1 0 0 101   0  0.000000e+00  0.000000e+00  2.107121e+03  2.107121e+03 0.0 0.0 9.0
21 -1 0 0 103 101  0.000000e+00  0.000000e+00 -2.457998e+03  2.457998e+03 0.0 0.0 9.0
 1  1 1 2 103   0 -1.077160e+03 -1.894220e+03 -8.338591e+02  2.333166e+03 0.0047 0.0 9.0
22  1 1 2   0   0  1.077160e+03  1.894220e+03  4.829816e+02  2.231953e+03 0.0 0.0 9.0
#pdf 1 21 3.241725e-01 3.781536e-01 5000.0 7.808320e-02 5.164265e-02
</event>
<event>
4 7 1.0 5000.0 7.905138e-03 7.739137e-02
 1 -1 0 0 101   0  0.000000e+00  0.000000e+00  1.485483e+03  1.485483e+03 0.0 0.0 9.0
21 -1 0 0 103 101  0.000000e+00  0.000000e+00 -4.287125e+03  4.287125e+03 0.0 0.0 9.0
 1  1 1 2 103   0 -1.118021e+03 -2.260343e+03 -1.511301e+03  2.939923e+03 0.0047 0.0 9.0
22  1 1 2   0   0  1.118021e+03  2.260343e+03 -1.290342e+03  2.832684e+03 0.0 0.0 9.0
#pdf 1 21 2.285358e-01 6.595577e-01 5000.0 1.464303e-01 1.901159e-03
</event>
<event>
4 7 1.0 5000.0 7.905138e-03 7.739137e-02
 1 -1 0 0 101   0  0.000000e+00  0.000000e+00  3.718317e+03  3.718317e+03 0.0 0.0 9.0
21 -1 0 0 103 101  0.000000e+00  0.000000e+00 -1.619595e+03  1.619595e+03 0.0 0.0 9.0
 1  1 1 2 103   0  2.420775e+03 -3.496387e+02  1.266247e+03  2.754229e+03 0.0047 0.0 9.0
22  1 1 2   0   0 -2.420775e+03  3.496387e+02  8.324758e+02  2.583682e+03 0.0 0.0 9.0
#pdf 1 21 5.720488e-01 2.491684e-01 5000.0 7.006231e-03 1.291260e-01
</event>
<event>
4 7 1.0 5000.0 7.905138e-03 7.739137e-02
 1 -1 0 0 101   0  0.000000e+00  0.000000e+00  4.067506e+03  4.067506e+03 0.0 0.0 9.0
21 -1 0 0 103 101  0.000000e+00  0.000000e+00 -1.532307e+03  1.532307e+03 0.0 0.0 9.0
22  1 1 2   0   0 -1.522995e+03 -1.922168e+03  1.791751e+03  3.037205e+03 0.0 0.0 9.0
 1  1 1 2 103   0  1.522995e+03  1.922168e+03  7.434483e+02  2.562608e+03 0.0047 0.0 9.0
#pdf 1 21 6.257702e-01 2.357396e-01 5000.0 3.279079e-03 1.402184e-01
</event>
<event>
4 7 1.0 5000.0 7.905138e-03 7.739137e-02
21 -1 0 0 103 101  0.000000e+00  0.000000e+00  2.993208e+03  2.993208e+03 0.0 0.0 9.0
 1 -1 0 0 101   0  0.000000e+00  0.000000e+00 -2.310759e+03  2.310759e+03 0.0 0.0 9.0
 1  1 1 2 103   0 -5.326647e+02 -1.458443e+03 -1.799253e+03  2.376573e+03 0.0047 0.0 9.0
22  1 1 2   0   0  5.326647e+02  1.458443e+03  2.481702e+03  2.927394e+03 0.0 0.0 9.0
#pdf 21 1 4.604936e-01 3.555014e-01 5000.0 4.803826e-03 1.823031e-02
</event>
<event>
4 7 1.0 5000.0 7.905138e-03 7.739137e-02
21 -1 0 0 103 101  0.000000e+00  0.000000e+00  3.370911e+03  3.370911e+03 0.0 0.0 9.0
 1 -1 0 0 101   0  0.000000e+00  0.000000e+00 -1.878505e+03  1.878505e+03 0.0 0.0 9.0
22  1 1 2   0   0  8.708974e+02  1.757584e+03 -8.979371e+02  2.157280e+03 0.0 0.0 9.0
 1  1 1 2 103   0 -8.708974e+02 -1.757584e+03  2.390343e+03  3.092136e+03 0.0047 0.0 9.0
#pdf 21 1 5.186016e-01 2.890007e-01 5000.0 2.174248e-03 4.123489e-02
</event>
<event>
4 7 1.0 5000.0 7.905138e-03 7.739137e-02
21 -1 0 0 103 101  0.000000e+00  0.000000e+00  2.416161e+03  2.416161e+03 0.0 0.0 9.0
 1 -1 0 0 101   0  0.000000e+00  0.000000e+00 -2.635235e+03  2.635235e+03 0.0 0.0 9.0
 1  1 1 2 103   0  2.135169e+03 -1.033140e+02  1.232445e+03  2.467497e+03 0.0047 0.0 9.0
22  1 1 2   0   0 -2.135169e+03  1.033140e+02 -1.451520e+03  2.583898e+03 0.0 0.0 9.0
#pdf 21 1 3.717170e-01 4.054208e-01 5000.0 1.491703e-02 9.787212e-03
</event>
<event>
4 7 1.0 5000.0 7.905138e-03 7.739137e-02
21 -1 0 0 103 101  0.000000e+00  0.000000e+00  2.318370e+03  2.318370e+03 0.0 0.0 9.0
 1 -1 0 0 101   0  0.000000e+00  0.000000e+00 -2.562760e+03  2.562760e+03 0.0 0.0 9.0
22  1 1 2   0   0  1.876843e+03 -1.053337e+02 -1.675850e+03  2.518354e+03 0.0 0.0 9.0
 1  1 1 2 103   0 -1.876843e+03  1.053337e+02  1.431460e+03  2.362776e+03 0.0047 0.0 9.0
#pdf 21 1 3.566724e-01 3.942708e-01 5000.0 1.796793e-02 1.126207e-02
</event>
<event>
4 7 1.0 5000.0 7.905138e-03 7.739137e-02
 1 -1 0 0 101   0  0.000000e+00  0.000000e+00  2.375326e+03  2.375326e+03 0.0 0.0 9.0
21 -1 0 0 103 101  0.000000e+00  0.000000e+00 -2.552505e+03  2.552505e+03 0.0 0.0 9.0
22  1 1 2   0   0  1.520026e+03 -1.922820e+03  1.467502e+02  2.455454e+03 0.0 0.0 9.0
 1  1 1 2 103   0 -1.520026e+03  1.922820e+03 -3.239292e+02  2.472377e+03 0.0047 0.0 9.0
#pdf 1 21 3.654348e-01 3.926931e-01 5000.0 5.716560e-02 4.580311e-02
</event>
<event>
4 7 1.0 5000.0 7.905138e-03 7.739137e-02
21 -1 0 0 103 101  0.000000e+00  0.000000e+00  3.187581e+03  3.187581e+03 0.0 0.0 9.0
 1 -1 0 0 101   0  0.000000e+00  0.000000e+00 -1.973084e+03  1.973084e+03 0.0 0.0 9.0
 1  1 1 2 103   0 -4.602323e+02 -2.260161e+03 -4.056929e+02  2.341950e+03 0.0047 0.0 9.0
22  1 1 2   0   0  4.602323e+02  2.260161e+03  1.620190e+03  2.818716e+03 0.0 0.0 9.0
#pdf 21 1 4.903971e-01 3.035514e-01 5000.0 3.215035e-03 3.451117e-02
</event>
<event>
4 7 1.0 5000.0 7.905138e-03 7.739137e-02
 1 -1 0 0 101   0  0.000000e+00  0.000000e+00  3.467502e+03  3.467502e+03 0.0 0.0 9.0
21 -1 0 0 103 101  0.000000e+00  0.000000e+00 -1.862425e+03  1.862425e+03 0.0 0.0 9.0
 1  1 1 2 103   0  1.892822e+03  1.624952e+03  1.310599e+03  2.817963e+03 0.0047 0.0 9.0
22  1 1 2   0   0 -1.892822e+03 -1.624952e+03  2.944785e+02  2.511964e+03 0.0 0.0 9.0
#pdf 1 21 5.334619e-01 2.865269e-01 5000.0 1.131036e-02 1.014749e-01
</event>
<event>
4 7 1.0 5000.0 7.905138e-03 7.739137e-02
21 -1 0 0 103 101  0.000000e+00  0.000000e+00  2.286732e+03  2.286732e+03 0.0 0.0 9.0
 1 -1 0 0 101   0  0.000000e+00  0.000000e+00 -2.504061e+03  2.504061e+03 0.0 0.0 9.0
 1  1 1 2 103   0  1.832471e+03 -1.218287e+03  8.324848e+02  2.352702e+03 0.0047 0.0 9.0
22  1 1 2   0   0 -1.832471e+03  1.218287e+03 -1.049814e+03  2.438090e+03 0.0 0.0 9.0
#pdf 21 1 3.518049e-01 3.852401e-01 5000.0 1.908925e-02 1.261857e-02
</event>
<event>
4 7 1.0 5000.0 7.905138e-03 7.739137e-02
 1 -1 0 0 101   0  0.000000e+00  0.000000e+00  2.936899e+03  2.936899e+03 0.0 0.0 9.0
21 -1 0 0 103 101  0.000000e+00  0.000000e+00 -2.166400e+03  2.166400e+03 0.0 0.0 9.0
 1  1 1 2 103   0 -1.723197e+03  1.450221e+02 -1.472362e+03  2.271186e+03 0.0047 0.0 9.0
22  1 1 2   0   0  1.723197e+03 -1.450221e+02  2.242861e+03  2.832113e+03 0.0 0.0 9.0
#pdf 1 21 4.518307e-01 3.332923e-01 5000.0 2.693893e-02 7.304935e-02
</event>
<event>
4 7 1.0 5000.0 7.905138e-03 7.739137e-02
21 -1 0 0 103 101  0.000000e+00  0.000000e+00  1.833552e+03  1.833552e+03 0.0 0.0 9.0
 1 -1 0 0 101   0  0.000000e+00  0.000000e+00 -3.307431e+03  3.307431e+03 0.0 0.0 9.0
 1  1 1 2 103   0 -8.975485e+02 -7.101893e+02 -3.012935e+03  3.223002e+03 0.0047 0.0 9.0
22  1 1 2   0   0  8.975485e+02  7.101893e+02  1.539056e+03  1.917982e+03 0.0 0.0 9.0
#pdf 21 1 2.820850e-01 5.088356e-01 5000.0 4.485647e-02 2.493485e-03
</event>
<event>
4 7 1.0 5000.0 7.905138e-03 7.739137e-02
21 -1 0 0 103 101  0.000000e+00  0.000000e+00  3.436245e+03  3.436245e+03 0.0 0.0 9.0
 1 -1 0 0 101   0  0.000000e+00  0.000000e+00 -1.548820e+03  1.548820e+03 0.0 0.0 9.0
 1  1 1 2 103   0 -1.830007e+02  2.298303e+03  1.030398e+03  2.525353e+03 0.0047 0.0 9.0
22  1 1 2   0   0  1.830007e+02 -2.298303e+03  8.570269e+02  2.459712e+03 0.0 0.0 9.0
#pdf 21 1 5.286531e-01 2.382800e-01 5000.0 1.885972e-03 7.725900e-02
</event>
<event>
4 7 1.0 5000.0 7.905138e-03 7.739137e-02
21 -1 0 0 103 101  0.000000e+00  0.000000e+00  1.927450e+03  1.927450e+03 0.0 0.0 9.0
 1 -1 0 0 101   0  0.000000e+00  0.000000e+00 -3.294908e+03  3.294908e+03 0.0 0.0 9.0
22  1 1 2   0   0 -2.127406e+03  6.839722e+02  5.233322e+02  2.295114e+03 0.0 0.0 9.0
 1  1 1 2 103   0  2.127406e+03 -6.839722e+02 -1.890790e+03  2.927244e+03 0.0047 0.0 9.0
#pdf 21 1 2.965308e-01 5.069090e-01 5000.0 3.761537e-02 2.561068e-03
</event>
<event>
4 7 1.0 5000.0 7.905138e-03 7.739137e-02
21 -1 0 0 103 101  0.000000e+00  0.000000e+00  2.486198e+03  2.486198e+03 0.0 0.0 9.0
 1 -1 0 0 101   0  0.000000e+00  0.000000e+00 -2.510477e+03  2.510477e+03 0.0 0.0 9.0
 1  1 1 2 103   0 -7.734671e+02  2.307199e+03  5.536596e+02  2.495588e+03 0.0047 0.0 9.0
22  1 1 2   0   0  7.734671e+02 -2.307199e+03 -5.779384e+02  2.501086e+03 0.0 0.0 9.0
#pdf 21 1 3.824920e-01 3.862272e-01 5000.0 1.306227e-02 1.246254e-02
</event>
<event>
4 7 1.0 5000.0 7.905138e-03 7.739137e-02
 1 -1 0 0 101   0  0.000000e+00  0.000000e+00  2.289624e+03  2.289624e+03 0.0 0.0 9.0
21 -1 0 0 103 101  0.000000e+00  0.000000e+00 -2.650032e+03  2.650032e+03 0.0 0.0 9.0
22  1 1 2   0   0  1.393186e+03  4.426716e+02 -2.168089e+03  2.614868e+03 0.0 0.0 9.0
 1  1 1 2 103   0 -1.393186e+03 -4.426716e+02  1.807682e+03  2.324788e+03 0.0047 0.0 9.0
#pdf 1 21 3.522499e-01 4.076972e-01 5000.0 6.334316e-02 4.029935e-02
</event>
<event>
4 7 1.0 5000.0 7.905138e-03 7.739137e-02
 1 -1 0 0 101   0  0.000000e+00  0.000000e+00  2.162535e+03  2.162535e+03 0.0 0.0 9.0
21 -1 0 0 103 101  0.000000e+00  0.000000e+00 -2.808089e+03  2.808089e+03 0.0 0.0 9.0
 1  1 1 2 103   0 -7.222764e+02 -7.504070e+02 -2.575191e+03  2.777841e+03 0.0047 0.0 9.0
22  1 1 2   0   0  7.222764e+02  7.504070e+02  1.929638e+03  2.192783e+03 0.0 0.0 9.0
#pdf 1 21 3.326978e-01 4.320136e-01 5000.0 7.337013e-02 3.244417e-02
</event>
<event>
4 7 1.0 5000.0 7.905138e-03 7.739137e-02
21 -1 0 0 103 101  0.000000e+00  0.000000e+00  3.974061e+03  3.974061e+03 0.0 0.0 9.0
 1 -1 0 0 101   0  0.000000e+00  0.000000e+00 -1.553314e+03  1.553314e+03 0.0 0.0 9.0
 1  1 1 2 103   0 -2.135665e+03 -3.422380e+02 -1.495972e+02  2.168080e+03 0.0047 0.0 9.0
22  1 1 2   0   0  2.135665e+03  3.422380e+02  2.570344e+03  3.359295e+03 0.0 0.0 9.0
#pdf 21 1 6.113940e-01 2.389714e-01 5000.0 5.338727e-04 7.659595e-02
</event>
<event>
4 7 1.0 5000.0 7.905138e-03 7.739137e-02
21 -1 0 0 103 101  0.000000e+00  0.000000e+00  3.307628e+03  3.307628e+03 0.0 0.0 9.0
 1 -1 0 0 101   0  0.000000e+00  0.000000e+00 -2.000292e+03  2.000292e+03 0.0 0.0 9.0
 1  1 1 2 103   0 -2.047131e+03  1.495345e+03  2.046123e+02  2.543358e+03 0.0047 0.0 9.0
22  1 1 2   0   0  2.047131e+03 -1.495345e+03  1.102724e+03  2.764562e+03 0.0 0.0 9.0
#pdf 21 1 5.088658e-01 3.077372e-01 5000.0 2.492439e-03 3.279737e-02
</event>
<event>
4 7 1.0 5000.0 7.905138e-03 7.739137e-02
 1 -1 0 0 101   0  0.000000e+00  0.000000e+00  2.209728e+03  2.209728e+03 0.0 0.0 9.0
21 -1 0 0 103 101  0.000000e+00  0.000000e+00 -2.927726e+03  2.927726e+03 0.0 0.0 9.0
 1  1 1 2 103   0  4.137359e+02 -4.013844e+02 -2.860889e+03  2.918385e+03 0.0047 0.0 9.0
22  1 1 2   0   0 -4.137359e+02  4.013844e+02  2.142891e+03  2.219069e+03 0.0 0.0 9.0
#pdf 1 21 3.399582e-01 4.504194e-01 5000.0 6.952400e-02 2.730418e-02
</event>
<event>
4 7 1.0 5000.0 7.905138e-03 7.739137e-02
21 -1 0 0 103 101  0.000000e+00  0.000000e+00  2.409183e+03  2.409183e+03 0.0 0.0 9.0
 1 -1 0 0 101   0  0.000000e+00  0.000000e+00 -2.461954e+03  2.461954e+03 0.0 0.0 9.0
22  1 1 2   0   0 -1.946062e+03 -1.136969e+03  8.964038e+02  2.425571e+03 0.0 0.0 9.0
 1  1 1 2 103   0  1.946062e+03  1.136969e+03 -9.491743e+02  2.445565e+03 0.0047 0.0 9.0
#pdf 21 1 3.706436e-01 3.787621e-01 5000.0 1.511476e-02 1.368491e-02
</event>
<event>
4 7 1.0 5000.0 7.905138e-03 7.739137e-02
21 -1 0 0 103 101  0.000000e+00  0.000000e+00  2.164099e+03  2.164099e+03 0.0 0.0 9.0
 1 -1 0 0 101   0  0.000000e+00  0.000000e+00 -2.874104e+03  2.874104e+03 0.0 0.0 9.0
 1  1 1 2 103   0  1.769792e+02 -2.435167e+03 -8.685421e+02  2.591471e+03 0.0047 0.0 9.0
22  1 1 2   0   0 -1.769792e+02  2.435167e+03  1.585370e+02  2.446731e+03 0.0 0.0 9.0
#pdf 21 1 3.329383e-01 4.421698e-01 5000.0 2.406368e-02 6.114404e-03
</event>
<event>
4 7 1.0 5000.0 7.905138e-03 7.739137e-02
21 -1 0 0 103 101  0.000000e+00  0.000000e+00  1.918196e+03  1.918196e+03 0.0 0.0 9.0
 1 -1 0 0 101   0  0.000000e+00  0.000000e+00 -3.313064e+03  3.313064e+03 0.0 0.0 9.0
22  1 1 2   0   0 -2.737175e+02 -6.901524e+02 -3.197053e+03  3.282131e+03 0.0 0.0 9.0
 1  1 1 2 103   0  2.737175e+02  6.901524e+02  1.802186e+03  1.949130e+03 0.0047 0.0 9.0
#pdf 21 1 2.951071e-01 5.097021e-01 5000.0 3.828257e-02 2.463630e-03
</event>
<event>
4 7 1.0 5000.0 7.905138e-03 7.739137e-02
 1 -1 0 0 101   0  0.000000e+00  0.000000e+00  2.593411e+03  2.593411e+03 0.0 0.0 9.0
21 -1 0 0 103 101  0.000000e+00  0.000000e+00 -2.309446e+03  2.309446e+03 0.0 0.0 9.0
 1  1 1 2 103   0  1.854773e+03 -1.002199e+03 -1.102989e+03  2.379322e+03 0.0047 0.0 9.0
22  1 1 2   0   0 -1.854773e+03  1.002199e+03  1.386955e+03  2.523535e+03 0.0 0.0 9.0
#pdf 1 21 3.989864e-01 3.552994e-01 5000.0 4.343217e-02 6.186976e-02
</event>
<event>
4 7 1.0 5000.0 7.905138e-03 7.739137e-02
 1 -1 0 0 101   0  0.000000e+00  0.000000e+00  2.160072e+03  2.160072e+03 0.0 0.0 9.0
21 -1 0 0 103 101  0.000000e+00  0.000000e+00 -2.938038e+03  2.938038e+03 0.0 0.0 9.0
 1  1 1 2 103   0  1.186860e+02  2.199135e+03  8.486603e+02  2.360192e+03 0.0047 0.0 9.0
22  1 1 2   0   0 -1.186860e+02 -2.199135e+03 -1.626626e+03  2.737918e+03 0.0 0.0 9.0
#pdf 1 21 3.323188e-01 4.520058e-01 5000.0 7.357514e-02 2.689377e-02
</event>
<event>
4 7 1.0 5000.0 7.905138e-03 7.739137e-02
21 -1 0 0 103 101  0.000000e+00  0.000000e+00  1.321015e+03  1.321015e+03 0.0 0.0 9.0
 1 -1 0 0 101   0  0.000000e+00  0.000000e+00 -4.682541e+03  4.682541e+03 0.0 0.0 9.0
22  1 1 2   0   0 -4.585831e+02 -2.034564e+03 -3.316129e+03  3.917456e+03 0.0 0.0 9.0
 1  1 1 2 103   0  4.585831e+02  2.034564e+03 -4.539583e+01  2.086100e+03 0.0047 0.0 9.0
#pdf 21 1 2.032331e-01 7.203909e-01 5000.0 1.205931e-01 7.107251e-05
</event>
<event>
4 7 1.0 5000.0 7.905138e-03 7.739137e-02
21 -1 0 0 103 101  0.000000e+00  0.000000e+00  3.167509e+03  3.167509e+03 0.0 0.0 9.0
 1 -1 0 0 101   0  0.000000e+00  0.000000e+00 -1.899119e+03  1.899119e+03 0.0 0.0 9.0
22  1 1 2   0   0  2.367315e+03 -6.377131e+02  5.640099e+02  2.515744e+03 0.0 0.0 9.0
 1  1 1 2 103   0 -2.367315e+03  6.377131e+02  7.043803e+02  2.550884e+03 0.0047 0.0 9.0
#pdf 21 1 4.873091e-01 2.921721e-01 5000.0 3.352750e-03 3.968027e-02
</event>
<event>
4 7 1.0 5000.0 7.905138e-03 7.739137e-02
21 -1 0 0 103 101  0.000000e+00  0.000000e+00  2.960480e+03  2.960480e+03 0.0 0.0 9.0
 1 -1 0 0 101   0  0.000000e+00  0.000000e+00 -1.872419e+03  1.872419e+03 0.0 0.0 9.0
22  1 1 2   0   0 -3.011210e+02  2.133657e+03  1.517761e+03  2.635672e+03 0.0 0.0 9.0
 1  1 1 2 103   0  3.011210e+02 -2.133657e+03 -4.296995e+02  2.197228e+03 0.0047 0.0 9.0
#pdf 21 1 4.554585e-01 2.880645e-01 5000.0 5.136865e-03 4.170473e-02
</event>
<event>
4 7 1.0 5000.0 7.905138e-03 7.739137e-02
21 -1 0 0 103 101  0.000000e+00  0.000000e+00  1.589829e+03  1.589829e+03 0.0 0.0 9.0
 1 -1 0 0 101   0  0.000000e+00  0.000000e+00 -3.841394e+03  3.841394e+03 0.0 0.0 9.0
22  1 1 2   0   0 -1.967536e+02  2.180485e+03 -2.385389e+03  3.237793e+03 0.0 0.0 9.0
 1  1 1 2 103   0  1.967536e+02 -2.180485e+03  1.338238e+02  2.193430e+03 0.0047 0.0 9.0
#pdf 21 1 2.445890e-01 5.909837e-01 5000.0 7.133755e-02 7.404485e-04
</event>
<event>
4 7 1.0 5000.0 7.905138e-03 7.739137e-02
 1 -1 0 0 101   0  0.000000e+00  0.000000e+00  2.877885e+03  2.877885e+03 0.0 0.0 9.0
21 -1 0 0 103 101  0.000000e+00  0.000000e+00 -2.325504e+03  2.325504e+03 0.0 0.0 9.0
22  1 1 2   0   0 -1.357038e+03  1.854594e+03  1.470990e+03  2.728532e+03 0.0 0.0 9.0
 1  1 1 2 103   0  1.357038e+03 -1.854594e+03 -9.186092e+02  2.474857e+03 0.0047 0.0 9.0
#pdf 1 21 4.427516e-01 3.577698e-01 5000.0 2.936853e-02 6.069738e-02
</event>
<event>
4 7 1.0 5000.0 7.905138e-03 7.739137e-02
21 -1 0 0 103 101  0.000000e+00  0.000000e+00  2.476929e+03  2.476929e+03 0.0 0.0 9.0
 1 -1 0 0 101   0  0.000000e+00  0.000000e+00 -2.628212e+03  2.628212e+03 0.0 0.0 9.0
22  1 1 2   0   0 -2.072505e+03  5.304328e+02 -1.466669e+03  2.593792e+03 0.0 0.0 9.0
 1  1 1 2 103   0  2.072505e+03 -5.304328e+02  1.315386e+03  2.511350e+03 0.0047 0.0 9.0
#pdf 21 1 3.810660e-01 4.043403e-01 5000.0 1.329765e-02 9.921877e-03
</event>
<event>
4 7 1.0 5000.0 7.905138e-03 7.739137e-02
 1 -1 0 0 101   0  0.000000e+00  0.000000e+00  2.241744e+03  2.241744e+03 0.0 0.0 9.0
21 -1 0 0 103 101  0.000000e+00  0.000000e+00 -2.740490e+03  2.740490e+03 0.0 0.0 9.0
 1  1 1 2 103   0 -6.538514e+02  6.529307e+02 -2.560905e+03  2.722513e+03 0.0047 0.0 9.0
22  1 1 2   0   0  6.538514e+02 -6.529307e+02  2.062159e+03  2.259721e+03 0.0 0.0 9.0
#pdf 1 21 3.448836e-01 4.216139e-01 5000.0 6.699950e-02 3.564610e-02
</event>
<event>
4 7 1.0 5000.0 7.905138e-03 7.739137e-02
 1 -1 0 0 101   0  0.000000e+00  0.000000e+00  2.012257e+03  2.012257e+03 0.0 0.0 9.0
21 -1 0 0 103 101  0.000000e+00  0.000000e+00 -3.059395e+03  3.059395e+03 0.0 0.0 9.0
 1  1 1 2 103   0 -1.478406e+03  1.846010e+03 -1.290325e+03  2.694137e+03 0.0047 0.0 9.0
22  1 1 2   0   0  1.478406e+03 -1.846010e+03  2.431864e+02  2.377515e+03 0.0 0.0 9.0
#pdf 1 21 3.095780e-01 4.706762e-01 5000.0 8.664602e-02 2.238309e-02
</event>
<event>
4 7 1.0 5000.0 7.905138e-03 7.739137e-02
21 -1 0 0 103 101  0.000000e+00  0.000000e+00  2.357443e+03  2.357443e+03 0.0 0.0 9.0
 1 -1 0 0 101   0  0.000000e+00  0.000000e+00 -2.683666e+03  2.683666e+03 0.0 0.0 9.0
 1  1 1 2 103   0 -3.077021e+02  9.892636e+02  2.133703e+03  2.371922e+03 0.0047 0.0 9.0
22  1 1 2   0   0  3.077021e+02 -9.892636e+02 -2.459926e+03  2.669187e+03 0.0 0.0 9.0
#pdf 21 1 3.626835e-01 4.128717e-01 5000.0 1.669072e-02 8.902426e-03
</event>
<event>
4 7 1.0 5000.0 7.905138e-03 7.739137e-02
 1 -1 0 0 101   0  0.000000e+00  0.000000e+00  1.406966e+03  1.406966e+03 0.0 0.0 9.0
21 -1 0 0 103 101  0.000000e+00  0.000000e+00 -4.231720e+03  4.231720e+03 0.0 0.0 9.0
22  1 1 2   0   0  1.142072e+03 -1.188425e+03 -3.491272e+03  3.860785e+03 0.0 0.0 9.0
 1  1 1 2 103   0 -1.142072e+03  1.188425e+03  6.665180e+02  1.777900e+03 0.0047 0.0 9.0
#pdf 1 21 2.164562e-01 6.510338e-01 5000.0 1.572622e-01 2.192734e-03
</event>
<event>
4 7 1.0 5000.0 7.905138e-03 7.739137e-02
21 -1 0 0 103 101  0.000000e+00  0.000000e+00  2.715774e+03  2.715774e+03 0.0 0.0 9.0
 1 -1 0 0 101   0  0.000000e+00  0.000000e+00 -1.936712e+03  1.936712e+03 0.0 0.0 9.0
22  1 1 2   0   0 -4.789842e+02  2.508067e+02  2.650204e+03  2.704794e+03 0.0 0.0 9.0
 1  1 1 2 103   0  4.789842e+02 -2.508067e+02 -1.871142e+03  1.947691e+03 0.0047 0.0 9.0
#pdf 21 1 4.178113e-01 2.979556e-01 5000.0 8.360238e-03 3.695302e-02
</event>
<event>
4 7 1.0 5000.0 7.905138e-03 7.739137e-02
21 -1 0 0 103 101  0.000000e+00  0.000000e+00  1.983301e+03  1.983301e+03 0.0 0.0 9.0
 1 -1 0 0 101   0  0.000000e+00  0.000000e+00 -3.094557e+03  3.094557e+03 0.0 0.0 9.0
22  1 1 2   0   0  2.360731e+03 -7.512292e+02 -5.621099e+02  2.540348e+03 0.0 0.0 9.0
 1  1 1 2 103   0 -2.360731e+03  7.512292e+02 -5.491464e+02  2.537511e+03 0.0047 0.0 9.0
#pdf 21 1 3.051232e-01 4.760857e-01 5000.0 3.386140e-02 3.903326e-03
</event>
<event>
4 7 1.0 5000.0 7.905138e-03 7.739137e-02
 1 -1 0 0 101   0  0.000000e+00  0.000000e+00  1.543954e+03  1.543954e+03 0.0 0.0 9.0
21 -1 0 0 103 101  0.000000e+00  0.000000e+00 -4.009557e+03  4.009557e+03 0.0 0.0 9.0
 1  1 1 2 103   0  1.307659e+03 -4.491158e+02 -3.541345e+03  3.801684e+03 0.0047 0.0 9.0
22  1 1 2   0   0 -1.307659e+03  4.491158e+02  1.075742e+03  1.751827e+03 0.0 0.0 9.0
#pdf 1 21 2.375314e-01 6.168549e-01 5000.0 1.387011e-01 3.751646e-03
</event>
<event>
4 7 1.0 5000.0 7.905138e-03 7.739137e-02
 1 -1 0 0 101   0  0.000000e+00  0.000000e+00  2.129555e+03  2.129555e+03 0.0 0.0 9.0
21 -1 0 0 103 101  0.000000e+00  0.000000e+00 -2.941805e+03  2.941805e+03 0.0 0.0 9.0
22  1 1 2   0   0  1.599720e+03  3.933410e+02  1.502906e+03  2.229921e+03 0.0 0.0 9.0
 1  1 1 2 103   0 -1.599720e+03 -3.933410e+02 -2.315157e+03  2.841439e+03 0.0047 0.0 9.0
#pdf 1 21 3.276238e-01 4.525854e-01 5000.0 7.614989e-02 2.674450e-02
</event>
<event>
4 7 1.0 5000.0 7.905138e-03 7.739137e-02
 1 -1 0 0 101   0  0.000000e+00  0.000000e+00  2.596532e+03  2.596532e+03 0.0 0.0 9.0
21 -1 0 0 103 101  0.000000e+00  0.000000e+00 -2.456172e+03  2.456172e+03 0.0 0.0 9.0
 1  1 1 2 103   0  2.136511e+03 -3.929998e+02 -1.218106e+03  2.490564e+03 0.0047 0.0 9.0
22  1 1 2   0   0 -2.136511e+03  3.929998e+02  1.358466e+03  2.562139e+03 0.0 0.0 9.0
#pdf 1 21 3.994664e-01 3.778726e-01 5000.0 4.325500e-02 5.176029e-02
</event>
<event>
4 7 1.0 5000.0 7.905138e-03 7.739137e-02
 1 -1 0 0 101   0  0.000000e+00  0.000000e+00  2.099888e+03  2.099888e+03 0.0 0.0 9.0
21 -1 0 0 103 101  0.000000e+00  0.000000e+00 -2.144921e+03  2.144921e+03 0.0 0.0 9.0
 1  1 1 2 103   0  8.009262e+02 -1.278864e+03 -1.514954e+03  2.138238e+03 0.0047 0.0 9.0
22  1 1 2   0   0 -8.009262e+02  1.278864e+03  1.469921e+03  2.106572e+03 0.0 0.0 9.0
#pdf 1 21 3.230597e-01 3.299879e-01 5000.0 7.871372e-02 7.484539e-02
</event>
<event>
4 7 1.0 5000.0 7.905138e-03 7.739137e-02
21 -1 0 0 103 101  0.000000e+00  0.000000e+00  1.711213e+03  1.711213e+03 0.0 0.0 9.0
 1 -1 0 0 101   0  0.000000e+00  0.000000e+00 -3.545134e+03  3.545134e+03 0.0 0.0 9.0
22  1 1 2   0   0  1.957554e+03 -1.451340e+03 -1.298829e+03  2.761406e+03 0.0 0.0 9.0
 1  1 1 2 103   0 -1.957554e+03  1.451340e+03 -5.350924e+02  2.494941e+03 0.0047 0.0 9.0
#pdf 21 1 2.632635e-01 5.454052e-01 5000.0 5.655847e-02 1.479299e-03
</event>
<event>
4 7 1.0 5000.0 7.905138e-03 7.739137e-02
21 -1 0 0 103 101  0.000000e+00  0.000000e+00  3.976229e+03  3.976229e+03 0.0 0.0 9.0
 1 -1 0 0 101   0  0.000000e+00  0.000000e+00 -1.565796e+03  1.565796e+03 0.0 0.0 9.0
 1  1 1 2 103   0 -4.054446e+01  7.260313e+02 -1.445516e+03  1.618111e+03 0.0047 0.0 9.0
22  1 1 2   0   0  4.054446e+01 -7.260313e+02  3.855949e+03  3.923915e+03 0.0 0.0 9.0
#pdf 21 1 6.117275e-01 2.408917e-01 5000.0 5.309641e-04 7.477527e-02
</event>
<event>
4 7 1.0 5000.0 7.905138e-03 7.739137e-02
 1 -1 0 0 101   0  0.000000e+00  0.000000e+00  3.173671e+03  3.173671e+03 0.0 0.0 9.0
21 -1 0 0 103 101  0.000000e+00  0.000000e+00 -1.992912e+03  1.992912e+03 0.0 0.0 9.0
22  1 1 2   0   0 -1.885363e+03  4.132952e+02 -1.065728e+03  2.204809e+03 0.0 0.0 9.0
 1  1 1 2 103   0  1.885363e+03 -4.132952e+02  2.246487e+03  2.961775e+03 0.0047 0.0 9.0
#pdf 1 21 4.882571e-01 3.066019e-01 5000.0 1.868405e-02 8.847167e-02
</event>
<event>
4 7 1.0 5000.0 7.905138e-03 7.739137e-02
 1 -1 0 0 101   0  0.000000e+00  0.000000e+00  2.814019e+03  2.814019e+03 0.0 0.0 9.0
21 -1 0 0 103 101  0.000000e+00  0.000000e+00 -2.413532e+03  2.413532e+03 0.0 0.0 9.0
22  1 1 2   0   0  6.556266e+02  2.039224e+03  1.689020e+03  2.727832e+03 0.0 0.0 9.0
 1  1 1 2 103   0 -6.556266e+02 -2.039224e+03 -1.288533e+03  2.499719e+03 0.0047 0.0 9.0
#pdf 1 21 4.329260e-01 3.713126e-01 5000.0 3.217499e-02 5.454942e-02
</event>
<event>
4 7 1.0 5000.0 7.905138e-03 7.739137e-02
21 -1 0 0 103 101  0.000000e+00  0.000000e+00  2.183202e+03  2.183202e+03 0.0 0.0 9.0
 1 -1 0 0 101   0  0.000000e+00  0.000000e+00 -2.875371e+03  2.875371e+03 0.0 0.0 9.0
22  1 1 2   0   0 -5.095498e+02 -1.781342e+03 -2.048722e+03  2.762260e+03 0.0 0.0 9.0
 1  1 1 2 103   0  5.095498e+02  1.781342e+03  1.356552e+03  2.296313e+03 0.0047 0.0 9.0
#pdf 21 1 3.358772e-01 4.423648e-01 5000.0 2.320934e-02 6.098689e-03
</event>
<event>
4 7 1.0 5000.0 7.905138e-03 7.739137e-02
21 -1 0 0 103 101  0.000000e+00  0.000000e+00  3.574849e+03  3.574849e+03 0.0 0.0 9.0
 1 -1 0 0 101   0  0.000000e+00  0.000000e+00 -1.496020e+03  1.496020e+03 0.0 0.0 9.0
22  1 1 2   0   0 -9.728718e+02 -1.894345e+02  3.330181e+03  3.474546e+03 0.0 0.0 9.0
 1  1 1 2 103   0  9.728718e+02  1.894345e+02 -1.251351e+03  1.596322e+03 0.0047 0.0 9.0
#pdf 21 1 5.499768e-01 2.301569e-01 5000.0 1.382129e-03 8.547204e-02
</event>
<event>
4 7 1.0 5000.0 7.905138e-03 7.739137e-02
21 -1 0 0 103 101  0.000000e+00  0.000000e+00  3.270455e+03  3.270455e+03 0.0 0.0 9.0
 1 -1 0 0 101   0  0.000000e+00  0.000000e+00 -2.016774e+03  2.016774e+03 0.0 0.0 9.0
22  1 1 2   0   0 -6.679566e+02 -4.819343e+02 -1.877127e+03  2.049886e+03 0.0 0.0 9.0
 1  1 1 2 103   0  6.679566e+02  4.819343e+02  3.130808e+03  3.237342e+03 0.0047 0.0 9.0
#pdf 21 1 5.031469e-01 3.102729e-01 5000.0 2.698115e-03 3.178843e-02
</event>
<event>
4 7 1.0 5000.0 7.905138e-03 7.739137e-02
21 -1 0 0 103 101  0.000000e+00  0.000000e+00  2.245422e+03  2.245422e+03 0.0 0.0 9.0
 1 -1 0 0 101   0  0.000000e+00  0.000000e+00 -2.932362e+03  2.932362e+03 0.0 0.0 9.0
22  1 1 2   0   0  1.310529e+03  2.163232e+03 -7.801487e+02  2.646827e+03 0.0 0.0 9.0
 1  1 1 2 103   0 -1.310529e+03 -2.163232e+03  9.320877e+01  2.530958e+03 0.0047 0.0 9.0
#pdf 21 1 3.454496e-01 4.511327e-01 5000.0 2.064053e-02 5.437114e-03
</event>
<event>
4 7 1.0 5000.0 7.905138e-03 7.739137e-02
21 -1 0 0 103 101  0.000000e+00  0.000000e+00  2.514377e+03  2.514377e+03 0.0 0.0 9.0
 1 -1 0 0 101   0  0.000000e+00  0.000000e+00 -2.521932e+03  2.521932e+03 0.0 0.0 9.0
 1  1 1 2 103   0 -9.270479e+02  4.048783e+02  2.302248e+03  2.514695e+03 0.0047 0.0 9.0
22  1 1 2   0   0  9.270479e+02 -4.048783e+02 -2.309803e+03  2.521613e+03 0.0 0.0 9.0
#pdf 21 1 3.868272e-01 3.879895e-01 5000.0 1.236859e-02 1.218857e-02
</event>
<event>
4 7 1.0 5000.0 7.905138e-03 7.739137e-02
 1 -1 0 0 101   0  0.000000e+00  0.000000e+00  2.809769e+03  2.809769e+03 0.0 0.0 9.0
21 -1 0 0 103 101  0.000000e+00  0.000000e+00 -2.164499e+03  2.164499e+03 0.0 0.0 9.0
 1  1 1 2 103   0  2.048260e+03  4.125949e+02  1.643813e+03  2.658519e+03 0.0047 0.0 9.0
22  1 1 2   0   0 -2.048260e+03 -4.125949e+02 -9.985428e+02  2.315748e+03 0.0 0.0 9.0
#pdf 1 21 4.322721e-01 3.329998e-01 5000.0 3.236773e-02 7.320704e-02
</event>
<event>
4 7 1.0 5000.0 7.905138e-03 7.739137e-02
 1 -1 0 0 101   0  0.000000e+00  0.000000e+00  2.283287e+03  2.283287e+03 0.0 0.0 9.0
21 -1 0 0 103 101  0.000000e+00  0.000000e+00 -2.702684e+03  2.702684e+03 0.0 0.0 9.0
22  1 1 2   0   0 -9.147452e+02  8.172322e+02  1.958164e+03  2.310635e+03 0.0 0.0 9.0
 1  1 1 2 103   0  9.147452e+02 -8.172322e+02 -2.377561e+03  2.675336e+03 0.0047 0.0 9.0
#pdf 1 21 3.512750e-01 4.157975e-01 5000.0 6.381917e-02 3.753970e-02
</event>
<event>
4 7 1.0 5000.0 7.905138e-03 7.739137e-02
21 -1 0 0 103 101  0.000000e+00  0.000000e+00  2.819331e+03  2.819331e+03 0.0 0.0 9.0
 1 -1 0 0 101   0  0.000000e+00  0.000000e+00 -2.105589e+03  2.105589e+03 0.0 0.0 9.0
22  1 1 2   0   0 -8.246986e+02 -2.117708e+03  1.244615e+03  2.591116e+03 0.0 0.0 9.0
 1  1 1 2 103   0  8.246986e+02  2.117708e+03 -5.308737e+02  2.333804e+03 0.0047 0.0 9.0
#pdf 21 1 4.337432e-01 3.239368e-01 5000.0 6.817158e-03 2.686669e-02
</event>
<event>
4 7 1.0 5000.0 7.905138e-03 7.739137e-02
 1 -1 0 0 101   0  0.000000e+00  0.000000e+00  2.909112e+03  2.909112e+03 0.0 0.0 9.0
21 -1 0 0 103 101  0.000000e+00  0.000000e+00 -2.149177e+03  2.149177e+03 0.0 0.0 9.0
22  1 1 2   0   0 -1.335430e+03 -1.508374e+03 -1.118126e+03  2.304077e+03 0.0 0.0 9.0
 1  1 1 2 103   0  1.335430e+03  1.508374e+03  1.878061e+03  2.754212e+03 0.0047 0.0 9.0
#pdf 1 21 4.475557e-01 3.306425e-01 5000.0 2.805295e-02 7.448701e-02
</event>
<event>
4 7 1.0 5000.0 7.905138e-03 7.739137e-02
 1 -1 0 0 101   0  0.000000e+00  0.000000e+00  2.595318e+03  2.595318e+03 0.0 0.0 9.0
21 -1 0 0 103 101  0.000000e+00  0.000000e+00 -2.413430e+03  2.413430e+03 0.0 0.0 9.0
22  1 1 2   0   0  9.239515e+02  1.391616e+03 -1.773975e+03  2.436652e+03 0.0 0.0 9.0
 1  1 1 2 103   0 -9.239515e+02 -1.391616e+03  1.955863e+03  2.572097e+03 0.0047 0.0 9.0
#pdf 1 21 3.992797e-01 3.712970e-01 5000.0 4.332384e-02 5.455622e-02
</event>
<event>
4 7 1.0 5000.0 7.905138e-03 7.739137e-02
 1 -1 0 0 101   0  0.000000e+00  0.000000e+00  1.803010e+03  1.803010e+03 0.0 0.0 9.0
21 -1 0 0 103 101  0.000000e+00  0.000000e+00 -3.102366e+03  3.102366e+03 0.0 0.0 9.0
22  1 1 2   0   0 -6.356268e+02  1.282992e+03  1.302473e+03  1.935595e+03 0.0 0.0 9.0
 1  1 1 2 103   0  6.356268e+02 -1.282992e+03 -2.601829e+03  2.969782e+03 0.0047 0.0 9.0
#pdf 1 21 2.773862e-01 4.772871e-01 5000.0 1.078110e-01 2.093157e-02
</event>
<event>
4 7 1.0 5000.0 7.905138e-03 7.739137e-02
21 -1 0 0 103 101  0.000000e+00  0.000000e+00  2.090749e+03  2.090749e+03 0.0 0.0 9.0
 1 -1 0 0 101   0  0.000000e+00  0.000000e+00 -3.024459e+03  3.024459e+03 0.0 0.0 9.0
 1  1 1 2 103   0  9.793642e+01 -6.837639e+02 -2.926076e+03  3.006500e+03 0.0047 0.0 9.0
22  1 1 2   0   0 -9.793642e+01  6.837639e+02  1.992366e+03  2.108708e+03 0.0 0.0 9.0
#pdf 21 1 3.216537e-01 4.653013e-01 5000.0 2.762769e-02 4.507479e-03
</event>
<event>
4 7 1.0 5000.0 7.905138e-03 7.739137e-02
 1 -1 0 0 101   0  0.000000e+00  0.000000e+00  1.210617e+03  1.210617e+03 0.0 0.0 9.0
21 -1 0 0 103 101  0.000000e+00  0.000000e+00 -4.293519e+03  4.293519e+03 0.0 0.0 9.0
22  1 1 2   0   0  1.861917e+03 -9.275248e+02 -4.150298e+02  2.121153e+03 0.0 0.0 9.0
 1  1 1 2 103   0 -1.861917e+03  9.275248e+02 -2.667872e+03  3.382984e+03 0.0047 0.0 9.0
#pdf 1 21 1.862488e-01 6.605414e-01 5000.0 1.867892e-01 1.869043e-03
</event>
<event>
4 7 1.0 5000.0 7.905138e-03 7.739137e-02
21 -1 0 0 103 101  0.000000e+00  0.000000e+00  2.985480e+03  2.985480e+03 0.0 0.0 9.0
 1 -1 0 0 101   0  0.000000e+00  0.000000e+00 -2.177844e+03  2.177844e+03 0.0 0.0 9.0
22  1 1 2   0   0  1.482671e+03 -1.257206e+03 -1.266908e+03  2.320331e+03 0.0 0.0 9.0
 1  1 1 2 103   0 -1.482671e+03  1.257206e+03  2.074543e+03  2.842993e+03 0.0047 0.0 9.0
#pdf 21 1 4.593046e-01 3.350530e-01 5000.0 4.880536e-03 2.344619e-02
</event>
<event>
4 7 1.0 5000.0 7.905138e-03 7.739137e-02
 1 -1 0 0 101   0  0.000000e+00  0.000000e+00  2.798933e+03  2.798933e+03 0.0 0.0 9.0
21 -1 0 0 103 101  0.000000e+00  0.000000e+00 -1.862894e+03  1.862894e+03 0.0 0.0 9.0
22  1 1 2   0   0  5.890583e+02  1.653017e+03 -1.023402e+03  2.031454e+03 0.0 0.0 9.0
 1  1 1 2 103   0 -5.890583e+02 -1.653017e+03  1.959441e+03  2.630373e+03 0.0047 0.0 9.0
#pdf 1 21 4.306051e-01 2.865991e-01 5000.0 3.286322e-02 1.014259e-01
</event>
<event>
4 7 1.0 5000.0 7.905138e-03 7.739137e-02
21 -1 0 0 103 101  0.000000e+00  0.000000e+00  2.379583e+03  2.379583e+03 0.0 0.0 9.0
 1 -1 0 0 101   0  0.000000e+00  0.000000e+00 -2.623706e+03  2.623706e+03 0.0 0.0 9.0
22  1 1 2   0   0  2.252100e+03 -9.644017e+02 -6.138706e+02  2.525641e+03 0.0 0.0 9.0
 1  1 1 2 103   0 -2.252100e+03  9.644017e+02  3.697479e+02  2.477648e+03 0.0047 0.0 9.0
#pdf 21 1 3.660897e-01 4.036471e-01 5000.0 1.600215e-02 1.000914e-02
</event>
<event>
4 7 1.0 5000.0 7.905138e-03 7.739137e-02
21 -1 0 0 103 101  0.000000e+00  0.000000e+00  4.182195e+03  4.182195e+03 0.0 0.0 9.0
 1 -1 0 0 101   0  0.000000e+00  0.000000e+00 -1.508106e+03  1.508106e+03 0.0 0.0 9.0
22  1 1 2   0   0 -5.274217e+01 -1.947019e+03  3.133139e+03  3.689204e+03 0.0 0.0 9.0
 1  1 1 2 103   0  5.274217e+01  1.947019e+03 -4.590496e+02  2.001098e+03 0.0047 0.0 9.0
#pdf 21 1 6.434147e-01 2.320163e-01 5000.0 3.110022e-04 8.350950e-02
</event>
<event>
4 7 1.0 5000.0 7.905138e-03 7.739137e-02
21 -1 0 0 103 101  0.000000e+00  0.000000e+00  3.576977e+03  3.576977e+03 0.0 0.0 9.0
 1 -1 0 0 101   0  0.000000e+00  0.000000e+00 -1.714968e+03  1.714968e+03 0.0 0.0 9.0
22  1 1 2   0   0 -1.260053e+03  2.066347e+03  3.688683e+02  2.448181e+03 0.0 0.0 9.0
 1  1 1 2 103   0  1.260053e+03 -2.066347e+03  1.493140e+03  2.843764e+03 0.0047 0.0 9.0
#pdf 21 1 5.503041e-01 2.638412e-01 5000.0 1.375402e-03 5.615491e-02
</event>
<event>
4 7 1.0 5000.0 7.905138e-03 7.739137e-02
21 -1 0 0 103 101  0.000000e+00  0.000000e+00  2.610986e+03  2.610986e+03 0.0 0.0 9.0
 1 -1 0 0 101   0  0.000000e+00  0.000000e+00 -2.392333e+03  2.392333e+03 0.0 0.0 9.0
22  1 1 2   0   0 -6.033159e+02 -2.378003e+03  5.867105e+02  2.522522e+03 0.0 0.0 9.0
 1  1 1 2 103   0  6.033159e+02  2.378003e+03 -3.680577e+02  2.480797e+03 0.0047 0.0 9.0
#pdf 21 1 4.016902e-01 3.680513e-01 5000.0 1.025920e-02 1.561205e-02
</event>
<event>
4 7 1.0 5000.0 7.905138e-03 7.739137e-02
21 -1 0 0 103 101  0.000000e+00  0.000000e+00  2.646810e+03  2.646810e+03 0.0 0.0 9.0
 1 -1 0 0 101   0  0.000000e+00  0.000000e+00 -2.331535e+03  2.331535e+03 0.0 0.0 9.0
22  1 1 2   0   0 -1.905877e+03  3.626516e+02  1.712289e+03  2.587628e+03 0.0 0.0 9.0
 1  1 1 2 103   0  1.905877e+03 -3.626516e+02 -1.397013e+03  2.390717e+03 0.0047 0.0 9.0
#pdf 21 1 4.072016e-01 3.586977e-01 5000.0 9.568693e-03 1.752586e-02
</event>
<event>
4 7 1.0 5000.0 7.905138e-03 7.739137e-02
21 -1 0 0 103 101  0.000000e+00  0.000000e+00  2.511469e+03  2.511469e+03 0.0 0.0 9.0
 1 -1 0 0 101   0  0.000000e+00  0.000000e+00 -2.400166e+03  2.400166e+03 0.0 0.0 9.0
 1  1 1 2 103   0 -1.300835e+03  1.736030e+03  1.205718e+03  2.481880e+03 0.0047 0.0 9.0
22  1 1 2   0   0  1.300835e+03 -1.736030e+03 -1.094414e+03  2.429756e+03 0.0 0.0 9.0
#pdf 21 1 3.863799e-01 3.692563e-01 5000.0 1.243856e-02 1.537761e-02
</event>
<event>
4 7 1.0 5000.0 7.905138e-03 7.739137e-02
 1 -1 0 0 101   0  0.000000e+00  0.000000e+00  2.324138e+03  2.324138e+03 0.0 0.0 9.0
21 -1 0 0 103 101  0.000000e+00  0.000000e+00 -2.683817e+03  2.683817e+03 0.0 0.0 9.0
 1  1 1 2 103   0 -2.395674e+03  3.976682e+02  4.049079e+02  2.461980e+03 0.0047 0.0 9.0
22  1 1 2   0   0  2.395674e+03 -3.976682e+02 -7.645873e+02  2.545975e+03 0.0 0.0 9.0
#pdf 1 21 3.575596e-01 4.128949e-01 5000.0 6.079639e-02 3.851204e-02
</event>
<event>
4 7 1.0 5000.0 7.905138e-03 7.739137e-02
21 -1 0 0 103 101  0.000000e+00  0.000000e+00  3.350937e+03  3.350937e+03 0.0 0.0 9.0
 1 -1 0 0 101   0  0.000000e+00  0.000000e+00 -1.860027e+03  1.860027e+03 0.0 0.0 9.0
 1  1 1 2 103   0  1.442528e+03 -1.544872e+03 -6.411614e+02  2.208756e+03 0.0047 0.0 9.0
22  1 1 2   0   0 -1.442528e+03  1.544872e+03  2.132072e+03  3.002207e+03 0.0 0.0 9.0
#pdf 21 1 5.155288e-01 2.861579e-01 5000.0 2.270836e-03 4.267943e-02
</event>
<event>
4 7 1.0 5000.0 7.905138e-03 7.739137e-02
 1 -1 0 0 101   0  0.000000e+00  0.000000e+00  3.225249e+03  3.225249e+03 0.0 0.0 9.0
21 -1 0 0 103 101  0.000000e+00  0.000000e+00 -1.670668e+03  1.670668e+03 0.0 0.0 9.0
 1  1 1 2 103   0 -1.089117e+03  1.050275e+03 -1.079201e+03  1.858475e+03 0.0047 0.0 9.0
22  1 1 2   0   0  1.089117e+03 -1.050275e+03  2.633781e+03  3.037443e+03 0.0 0.0 9.0
#pdf 1 21 4.961921e-01 2.570259e-01 5000.0 1.717822e-02 1.229209e-01
</event>
<event>
4 7 1.0 5000.0 7.905138e-03 7.739137e-02
21 -1 0 0 103 101  0.000000e+00  0.000000e+00  1.801986e+03  1.801986e+03 0.0 0.0 9.0
 1 -1 0 0 101   0  0.000000e+00  0.000000e+00 -3.458064e+03  3.458064e+03 0.0 0.0 9.0
 1  1 1 2 103   0  1.786246e+03  3.903825e+02 -2.618601e+03  3.193767e+03 0.0047 0.0 9.0
22  1 1 2   0   0 -1.786246e+03 -3.903825e+02  9.625226e+02  2.066283e+03 0.0 0.0 9.0
#pdf 21 1 2.772286e-01 5.320098e-01 5000.0 4.762158e-02 1.797455e-03
</event>
<event>
4 7 1.0 5000.0 7.905138e-03 7.739137e-02
21 -1 0 0 103 101  0.000000e+00  0.000000e+00  2.789083e+03  2.789083e+03 0.0 0.0 9.0
 1 -1 0 0 101   0  0.000000e+00  0.000000e+00 -2.259642e+03  2.259642e+03 0.0 0.0 9.0
 1  1 1 2 103   0 -1.340456e+03 -1.042902e+03 -1.594276e+03  2.329416e+03 0.0047 0.0 9.0
22  1 1 2   0   0  1.340456e+03  1.042902e+03  2.123717e+03  2.719309e+03 0.0 0.0 9.0
#pdf 21 1 4.290897e-01 3.476372e-01 5000.0 7.234934e-03 2.009494e-02
</event>
<event>
4 7 1.0 5000.0 7.905138e-03 7.739137e-02
21 -1 0 0 103 101  0.000000e+00  0.000000e+00  2.113328e+03  2.113328e+03 0.0 0.0 9.0
 1 -1 0 0 101   0  0.000000e+00  0.000000e+00 -2.964992e+03  2.964992e+03 0.0 0.0 9.0
 1  1 1 2 103   0  7.806276e+02  2.306114e+03  1.642981e+02  2.440191e+03 0.0047 0.0 9.0
22  1 1 2   0   0 -7.806276e+02 -2.306114e+03 -1.015962e+03  2.638128e+03 0.0 0.0 9.0
#pdf 21 1 3.251273e-01 4.561525e-01 5000.0 2.647839e-02 5.089767e-03
</event>
<event>
4 7 1.0 5000.0 7.905138e-03 7.739137e-02
 1 -1 0 0 101   0  0.000000e+00  0.000000e+00  2.331615e+03  2.331615e+03 0.0 0.0 9.0
21 -1 0 0 103 101  0.000000e+00  0.000000e+00 -2.626866e+03  2.626866e+03 0.0 0.0 9.0
 1  1 1 2 103   0 -2.202058e+03  2.817466e+02 -1.243370e+03  2.544486e+03 0.0047 0.0 9.0
22  1 1 2   0   0  2.202058e+03 -2.817466e+02  9.481181e+02  2.413995e+03 0.0 0.0 9.0
#pdf 1 21 3.587099e-01 4.041332e-01 5000.0 6.025616e-02 4.156013e-02
</event>
<event>
4 7 1.0 5000.0 7.905138e-03 7.739137e-02
 1 -1 0 0 101   0  0.000000e+00  0.000000e+00  2.674139e+03  2.674139e+03 0.0 0.0 9.0
21 -1 0 0 103 101  0.000000e+00  0.000000e+00 -2.412096e+03  2.412096e+03 0.0 0.0 9.0
22  1 1 2   0   0  6.698183e+02 -1.748633e+03 -1.587042e+03  2.454603e+03 0.0 0.0 9.0
 1  1 1 2 103   0 -6.698183e+02  1.748633e+03  1.849085e+03  2.631633e+03 0.0047 0.0 9.0
#pdf 1 21 4.114060e-01 3.710918e-01 5000.0 3.901792e-02 5.464546e-02
</event>
<event>
4 7 1.0 5000.0 7.905138e-03 7.739137e-02
 1 -1 0 0 101   0  0.000000e+00  0.000000e+00  2.784850e+03  2.784850e+03 0.0 0.0 9.0
21 -1 0 0 103 101  0.000000e+00  0.000000e+00 -2.250102e+03  2.250102e+03 0.0 0.0 9.0
 1  1 1 2 103   0  2.185100e+03  6.481689e+02  1.308353e+03  2.628036e+03 0.0047 0.0 9.0
22  1 1 2   0   0 -2.185100e+03 -6.481689e+02 -7.736052e+02  2.406917e+03 0.0 0.0 9.0
#pdf 1 21 4.284385e-01 3.461696e-01 5000.0 3.351667e-02 6.635112e-02
</event>
<event>
4 7 1.0 5000.0 7.905138e-03 7.739137e-02
21 -1 0 0 103 101  0.000000e+00  0.000000e+00  2.146891e+03  2.146891e+03 0.0 0.0 9.0
 1 -1 0 0 101   0  0.000000e+00  0.000000e+00 -2.955368e+03  2.955368e+03 0.0 0.0 9.0
22  1 1 2   0   0  8.450439e+02 -1.060059e+03 -2.554379e+03  2.891830e+03 0.0 0.0 9.0
 1  1 1 2 103   0 -8.450439e+02  1.060059e+03  1.745902e+03  2.210430e+03 0.0047 0.0 9.0
#pdf 21 1 3.302909e-01 4.546720e-01 5000.0 2.485754e-02 5.190631e-03
</event>
<event>
4 7 1.0 5000.0 7.905138e-03 7.739137e-02
21 -1 0 0 103 101  0.000000e+00  0.000000e+00  2.497313e+03  2.497313e+03 0.0 0.0 9.0
 1 -1 0 0 101   0  0.000000e+00  0.000000e+00 -2.560081e+03  2.560081e+03 0.0 0.0 9.0
22  1 1 2   0   0 -5.497841e+02  1.105243e+03  2.175480e+03  2.501307e+03 0.0 0.0 9.0
 1  1 1 2 103   0  5.497841e+02 -1.105243e+03 -2.238248e+03  2.556087e+03 0.0047 0.0 9.0
#pdf 21 1 3.842020e-01 3.938586e-01 5000.0 1.278460e-02 1.132055e-02
</event>
<event>
4 7 1.0 5000.0 7.905138e-03 7.739137e-02
21 -1 0 0 103 101  0.000000e+00  0.000000e+00  3.357828e+03  3.357828e+03 0.0 0.0 9.0
 1 -1 0 0 101   0  0.000000e+00  0.000000e+00 -1.874024e+03  1.874024e+03 0.0 0.0 9.0
22  1 1 2   0   0 -2.359560e+03 -7.638418e+02  1.134413e+03  2.727246e+03 0.0 0.0 9.0
 1  1 1 2 103   0  2.359560e+03  7.638418e+02  3.493903e+02  2.504606e+03 0.0047 0.0 9.0
#pdf 21 1 5.165889e-01 2.883114e-01 5000.0 2.237131e-03 4.158028e-02
</event>
<event>
4 7 1.0 5000.0 7.905138e-03 7.739137e-02
21 -1 0 0 103 101  0.000000e+00  0.000000e+00  2.773798e+03  2.773798e+03 0.0 0.0 9.0
 1 -1 0 0 101   0  0.000000e+00  0.000000e+00 -2.255512e+03  2.255512e+03 0.0 0.0 9.0
 1  1 1 2 103   0 -1.004492e+03  1.464203e+03 -1.511945e+03  2.332139e+03 0.0047 0.0 9.0
22  1 1 2   0   0  1.004492e+03 -1.464203e+03  2.030231e+03  2.697171e+03 0.0 0.0 9.0
#pdf 21 1 4.267382e-01 3.470019e-01 5000.0 7.457332e-03 2.025204e-02
</event>
<event>
4 7 1.0 5000.0 7.905138e-03 7.739137e-02
21 -1 0 0 103 101  0.000000e+00  0.000000e+00  2.777016e+03  2.777016e+03 0.0 0.0 9.0
 1 -1 0 0 101   0  0.000000e+00  0.000000e+00 -2.149854e+03  2.149854e+03 0.0 0.0 9.0
22  1 1 2   0   0  1.480615e+03 -1.367798e+03 -1.078718e+03  2.286203e+03 0.0 0.0 9.0
 1  1 1 2 103   0 -1.480615e+03  1.367798e+03  1.705881e+03  2.640667e+03 0.0047 0.0 9.0
#pdf 21 1 4.272333e-01 3.307468e-01 5000.0 7.409804e-03 2.471913e-02
</event>
<event>
4 7 1.0 5000.0 7.905138e-03 7.739137e-02
 1 -1 0 0 101   0  0.000000e+00  0.000000e+00  1.884180e+03  1.884180e+03 0.0 0.0 9.0
21 -1 0 0 103 101  0.000000e+00  0.000000e+00 -3.297884e+03  3.297884e+03 0.0 0.0 9.0
22  1 1 2   0   0  2.064950e+02  1.041105e+03  1.637572e+03  1.951456e+03 0.0 0.0 9.0
 1  1 1 2 103   0 -2.064950e+02 -1.041105e+03 -3.051276e+03  3.230608e+03 0.0047 0.0 9.0
#pdf 1 21 2.898738e-01 5.073668e-01 5000.0 9.922282e-02 1.521686e-02
</event>
<event>
4 7 1.0 5000.0 7.905138e-03 7.739137e-02
21 -1 0 0 103 101  0.000000e+00  0.000000e+00  3.230960e+03  3.230960e+03 0.0 0.0 9.0
 1 -1 0 0 101   0  0.000000e+00  0.000000e+00 -1.884216e+03  1.884216e+03 0.0 0.0 9.0
 1  1 1 2 103   0 -1.119068e+03 -1.857613e+03  1.893178e+03  2.878743e+03 0.0047 0.0 9.0
22  1 1 2   0   0  1.119068e+03  1.857613e+03 -5.464334e+02  2.236433e+03 0.0 0.0 9.0
#pdf 21 1 4.970708e-01 2.898794e-01 5000.0 2.934773e-03 4.079879e-02
</event>
<event>
4 7 1.0 5000.0 7.905138e-03 7.739137e-02
 1 -1 0 0 101   0  0.000000e+00  0.000000e+00  3.409231e+03  3.409231e+03 0.0 0.0 9.0
21 -1 0 0 103 101  0.000000e+00  0.000000e+00 -1.803066e+03  1.803066e+03 0.0 0.0 9.0
 1  1 1 2 103   0 -6.741836e+02 -1.426978e+03 -1.206865e+03  1.986785e+03 0.0047 0.0 9.0
22  1 1 2   0   0  6.741836e+02  1.426978e+03  2.813030e+03  3.225512e+03 0.0 0.0 9.0
#pdf 1 21 5.244971e-01 2.773948e-01 5000.0 1.255255e-02 1.078049e-01
</event>
<event>
4 7 1.0 5000.0 7.905138e-03 7.739137e-02
21 -1 0 0 103 101  0.000000e+00  0.000000e+00  1.938742e+03  1.938742e+03 0.0 0.0 9.0
 1 -1 0 0 101   0  0.000000e+00  0.000000e+00 -2.934494e+03  2.934494e+03 0.0 0.0 9.0
22  1 1 2   0   0  1.575059e+03 -1.211030e+03  8.503498e+02  2.161134e+03 0.0 0.0 9.0
 1  1 1 2 103   0 -1.575059e+03  1.211030e+03 -1.846102e+03  2.712102e+03 0.0047 0.0 9.0
#pdf 21 1 2.982680e-01 4.514606e-01 5000.0 3.680844e-02 5.414008e-03
</event>
<event>
4 7 1.0 5000.0 7.905138e-03 7.739137e-02
 1 -1 0 0 101   0  0.000000e+00  0.000000e+00  2.419748e+03  2.419748e+03 0.0 0.0 9.0
21 -1 0 0 103 101  0.000000e+00  0.000000e+00 -2.675379e+03  2.675379e+03 0.0 0.0 9.0
22  1 1 2   0   0 -2.079859e+03 -5.313789e+01 -1.594280e+03  2.621138e+03 0.0 0.0 9.0
 1  1 1 2 103   0  2.079859e+03  5.313789e+01  1.338649e+03  2.473988e+03 0.0047 0.0 9.0
#pdf 1 21 3.722689e-01 4.115967e-01 5000.0 5.413639e-02 3.895287e-02
</event>
<event>
4 7 1.0 5000.0 7.905138e-03 7.739137e-02
21 -1 0 0 103 101  0.000000e+00  0.000000e+00  2.399868e+03  2.399868e+03 0.0 0.0 9.0
 1 -1 0 0 101   0  0.000000e+00  0.000000e+00 -2.593999e+03  2.593999e+03 0.0 0.0 9.0
 1  1 1 2 103   0  1.691467e+02 -1.693254e+03 -1.923147e+03  2.567920e+03 0.0047 0.0 9.0
22  1 1 2   0   0 -1.691467e+02  1.693254e+03  1.729016e+03  2.425946e+03 0.0 0.0 9.0
#pdf 21 1 3.692104e-01 3.990767e-01 5000.0 1.538642e-02 1.060217e-02
</event>
<event>
4 7 1.0 5000.0 7.905138e-03 7.739137e-02
21 -1 0 0 103 101  0.000000e+00  0.000000e+00  3.252971e+03  3.252971e+03 0.0 0.0 9.0
 1 -1 0 0 101   0  0.000000e+00  0.000000e+00 -1.838202e+03  1.838202e+03 0.0 0.0 9.0
22  1 1 2   0   0  2.299277e+03  1.572287e+02 -1.435817e+02  2.309114e+03 0.0 0.0 9.0
 1  1 1 2 103   0 -2.299277e+03 -1.572287e+02  1.558351e+03  2.782059e+03 0.0047 0.0 9.0
#pdf 21 1 5.004571e-01 2.828003e-01 5000.0 2.800552e-03 4.446368e-02
</event>
<event>
4 7 1.0 5000.0 7.905138e-03 7.739137e-02
21 -1 0 0 103 101  0.000000e+00  0.000000e+00  2.033398e+03  2.033398e+03 0.0 0.0 9.0
 1 -1 0 0 101   0  0.000000e+00  0.000000e+00 -2.995623e+03  2.995623e+03 0.0 0.0 9.0
 1  1 1 2 103   0  1.087175e+03 -1.356122e+03 -2.266315e+03  2.856081e+03 0.0047 0.0 9.0
22  1 1 2   0   0 -1.087175e+03  1.356122e+03  1.304090e+03  2.172939e+03 0.0 0.0 9.0
#pdf 21 1 3.128304e-01 4.608651e-01 5000.0 3.079782e-02 4.780133e-03
</event>
<event>
4 7 1.0 5000.0 7.905138e-03 7.739137e-02
21 -1 0 0 103 101  0.000000e+00  0.000000e+00  1.893853e+03  1.893853e+03 0.0 0.0 9.0
 1 -1 0 0 101   0  0.000000e+00  0.000000e+00 -3.160948e+03  3.160948e+03 0.0 0.0 9.0
 1  1 1 2 103   0 -8.950747e+02 -1.809145e+03 -2.061980e+03  2.885468e+03 0.0047 0.0 9.0
22  1 1 2   0   0  8.950747e+02  1.809145e+03  7.948840e+02  2.169333e+03 0.0 0.0 9.0
#pdf 21 1 2.913619e-01 4.862997e-01 5000.0 4.007251e-02 3.398984e-03
</event>
<event>
4 7 1.0 5000.0 7.905138e-03 7.739137e-02
21 -1 0 0 103 101  0.000000e+00  0.000000e+00  2.647319e+03  2.647319e+03 0.0 0.0 9.0
 1 -1 0 0 101   0  0.000000e+00  0.000000e+00 -1.787721e+03  1.787721e+03 0.0 0.0 9.0
 1  1 1 2 103   0 -2.159984e+03 -2.248447e+02  5.610480e+02  2.242959e+03 0.0047 0.0 9.0
22  1 1 2   0   0  2.159984e+03  2.248447e+02  2.985500e+02  2.192081e+03 0.0 0.0 9.0
#pdf 21 1 4.072798e-01 2.750340e-01 5000.0 9.559191e-03 4.892331e-02
</event>
<event>
4 7 1.0 5000.0 7.905138e-03 7.739137e-02
21 -1 0 0 103 101  0.000000e+00  0.000000e+00  2.483356e+03  2.483356e+03 0.0 0.0 9.0
 1 -1 0 0 101   0  0.000000e+00  0.000000e+00 -2.589223e+03  2.589223e+03 0.0 0.0 9.0
 1  1 1 2 103   0  2.409737e+03  7.343281e+02  2.367722e+02  2.530243e+03 0.0047 0.0 9.0
22  1 1 2   0   0 -2.409737e+03 -7.343281e+02 -3.426389e+02  2.542336e+03 0.0 0.0 9.0
#pdf 21 1 3.820548e-01 3.983419e-01 5000.0 1.313408e-02 1.070054e-02
</event>
<event>
4 7 1.0 5000.0 7.905138e-03 7.739137e-02
21 -1 0 0 103 101  0.000000e+00  0.000000e+00  3.673658e+03  3.673658e+03 0.0 0.0 9.0
 1 -1 0 0 101   0  0.000000e+00  0.000000e+00 -1.776773e+03  1.776773e+03 0.0 0.0 9.0
22  1 1 2   0   0 -5.275538e+02 -2.433809e+03  3.398532e+02  2.513412e+03 0.0 0.0 9.0
 1  1 1 2 103   0  5.275538e+02  2.433809e+03  1.557031e+03  2.937020e+03 0.0047 0.0 9.0
#pdf 21 1 5.651781e-01 2.733498e-01 5000.0 1.103546e-03 4.994607e-02
</event>
<event>
4 7 1.0 5000.0 7.905138e-03 7.739137e-02
21 -1 0 0 103 101  0.000000e+00  0.000000e+00  2.533152e+03  2.533152e+03 0.0 0.0 9.0
 1 -1 0 0 101   0  0.000000e+00  0.000000e+00 -2.436392e+03  2.436392e+03 0.0 0.0 9.0
 1  1 1 2 103   0 -6.262692e+02  5.290206e+02 -2.297204e+03  2.439102e+03 0.0047 0.0 9.0
22  1 1 2   0   0  6.262692e+02 -5.290206e+02  2.393963e+03  2.530442e+03 0.0 0.0 9.0
#pdf 21 1 3.897157e-01 3.748296e-01 5000.0 1.192615e-02 1.436410e-02
</event>
<event>
4 7 1.0 5000.0 7.905138e-03 7.739137e-02
 1 -1 0 0 101   0  0.000000e+00  0.000000e+00  2.217874e+03  2.217874e+03 0.0 0.0 9.0
21 -1 0 0 103 101  0.000000e+00  0.000000e+00 -2.682495e+03  2.682495e+03 0.0 0.0 9.0
22  1 1 2   0   0 -9.492122e+02 -7.628684e+02 -2.355275e+03  2.651470e+03 0.0 0.0 9.0
 1  1 1 2 103   0  9.492122e+02  7.628684e+02  1.890654e+03  2.248899e+03 0.0047 0.0 9.0
#pdf 1 21 3.412114e-01 4.126916e-01 5000.0 6.887542e-02 3.858085e-02
</event>
<event>
4 7 1.0 5000.0 7.905138e-03 7.739137e-02
 1 -1 0 0 101   0  0.000000e+00  0.000000e+00  3.900493e+03  3.900493e+03 0.0 0.0 9.0
21 -1 0 0 103 101  0.000000e+00  0.000000e+00 -1.550424e+03  1.550424e+03 0.0 0.0 9.0
22  1 1 2   0   0 -2.177928e+03 -1.095176e+03  8.165284e+02  2.570895e+03 0.0 0.0 9.0
 1  1 1 2 103   0  2.177928e+03  1.095176e+03  1.533541e+03  2.880022e+03 0.0047 0.0 9.0
#pdf 1 21 6.000758e-01 2.385267e-01 5000.0 4.786141e-03 1.378631e-01
</event>
<event>
4 7 1.0 5000.0 7.905138e-03 7.739137e-02
 1 -1 0 0 101   0  0.000000e+00  0.000000e+00  3.423218e+03  3.423218e+03 0.0 0.0 9.0
21 -1 0 0 103 101  0.000000e+00  0.000000e+00 -1.787931e+03  1.787931e+03 0.0 0.0 9.0
 1  1 1 2 103   0 -9.105849e+02 -4.451470e+02 -1.559220e+03  1.859701e+03 0.0047 0.0 9.0
22  1 1 2   0   0  9.105849e+02  4.451470e+02  3.194508e+03  3.351448e+03 0.0 0.0 9.0
#pdf 1 21 5.266489e-01 2.750662e-01 5000.0 1.224607e-02 1.094644e-01
</event>
<event>
4 7 1.0 5000.0 7.905138e-03 7.739137e-02
 1 -1 0 0 101   0  0.000000e+00  0.000000e+00  2.265258e+03  2.265258e+03 0.0 0.0 9.0
21 -1 0 0 103 101  0.000000e+00  0.000000e+00 -2.690147e+03  2.690147e+03 0.0 0.0 9.0
22  1 1 2   0   0 -2.059797e+03 -1.746608e+02 -1.566732e+03  2.593823e+03 0.0 0.0 9.0
 1  1 1 2 103   0  2.059797e+03  1.746608e+02  1.141843e+03  2.361583e+03 0.0047 0.0 9.0
#pdf 1 21 3.485013e-01 4.138688e-01 5000.0 6.518647e-02 3.818375e-02
</event>
<event>
4 7 1.0 5000.0 7.905138e-03 7.739137e-02
 1 -1 0 0 101   0  0.000000e+00  0.000000e+00  1.321153e+03  1.321153e+03 0.0 0.0 9.0
21 -1 0 0 103 101  0.000000e+00  0.000000e+00 -4.554441e+03  4.554441e+03 0.0 0.0 9.0
 1  1 1 2 103   0 -1.830804e+03 -6.745434e+02 -3.397175e+03  3.917608e+03 0.0047 0.0 9.0
22  1 1 2   0   0  1.830804e+03  6.745434e+02  1.638868e+02  1.957986e+03 0.0 0.0 9.0
#pdf 1 21 2.032543e-01 7.006833e-01 5000.0 1.697425e-01 8.930063e-04
</event>
<event>
4 7 1.0 5000.0 7.905138e-03 7.739137e-02
21 -1 0 0 103 101  0.000000e+00  0.000000e+00  2.918277e+03  2.918277e+03 0.0 0.0 9.0
 1 -1 0 0 101   0  0.000000e+00  0.000000e+00 -2.053345e+03  2.053345e+03 0.0 0.0 9.0
22  1 1 2   0   0  7.539948e+02  1.785374e+03  1.951003e+03  2.749997e+03 0.0 0.0 9.0
 1  1 1 2 103   0 -7.539948e+02 -1.785374e+03 -1.086071e+03  2.221626e+03 0.0047 0.0 9.0
#pdf 21 1 4.489657e-01 3.158993e-01 5000.0 5.590885e-03 2.964999e-02
</event>
<event>
4 7 1.0 5000.0 7.905138e-03 7.739137e-02
21 -1 0 0 103 101  0.000000e+00  0.000000e+00  1.532247e+03  1.532247e+03 0.0 0.0 9.0
 1 -1 0 0 101   0  0.000000e+00  0.000000e+00 -4.022621e+03  4.022621e+03 0.0 0.0 9.0
22  1 1 2   0   0 -6.575730e+02  2.198627e+03 -1.854696e+02  2.302338e+03 0.0 0.0 9.0
 1  1 1 2 103   0  6.575730e+02 -2.198627e+03 -2.304905e+03  3.252530e+03 0.0047 0.0 9.0
#pdf 21 1 2.357303e-01 6.188648e-01 5000.0 7.974544e-02 4.722012e-04
</event>
<event>
4 7 1.0 5000.0 7.905138e-03 7.739137e-02
21 -1 0 0 103 101  0.000000e+00  0.000000e+00  1.403504e+03  1.403504e+03 0.0 0.0 9.0
 1 -1 0 0 101   0  0.000000e+00  0.000000e+00 -3.725028e+03  3.725028e+03 0.0 0.0 9.0
 1  1 1 2 103   0  3.027836e+01 -2.257373e+03 -1.567356e+03  2.748318e+03 0.0047 0.0 9.0
22  1 1 2   0   0 -3.027836e+01  2.257373e+03 -7.541679e+02  2.380214e+03 0.0 0.0 9.0
#pdf 21 1 2.159237e-01 5.730812e-01 5000.0 1.024883e-01 9.774297e-04
</event>
<event>
4 7 1.0 5000.0 7.905138e-03 7.739137e-02
 1 -1 0 0 101   0  0.000000e+00  0.000000e+00  1.418244e+03  1.418244e+03 0.0 0.0 9.0
21 -1 0 0 103 101  0.000000e+00  0.000000e+00 -3.930135e+03  3.930135e+03 0.0 0.0 9.0
 1  1 1 2 103   0  1.421566e+03  1.845410e+03 -1.690971e+03  2.878501e+03 0.0047 0.0 9.0
22  1 1 2   0   0 -1.421566e+03 -1.845410e+03 -8.209210e+02  2.469878e+03 0.0 0.0 9.0
#pdf 1 21 2.181913e-01 6.046362e-01 5000.0 1.556721e-01 4.485669e-03
</event>
<event>
4 7 1.0 5000.0 7.905138e-03 7.739137e-02
21 -1 0 0 103 101  0.000000e+00  0.000000e+00  2.450577e+03  2.450577e+03 0.0 0.0 9.0
 1 -1 0 0 101   0  0.000000e+00  0.000000e+00 -2.124257e+03  2.124257e+03 0.0 0.0 9.0
 1  1 1 2 103   0 -1.343651e+03  4.003899e+02 -1.641421e+03  2.158697e+03 0.0047 0.0 9.0
22  1 1 2   0   0  1.343651e+03 -4.003899e+02  1.967741e+03  2.416137e+03 0.0 0.0 9.0
#pdf 21 1 3.770118e-01 3.268087e-01 5000.0 1.398451e-02 2.593957e-02
</event>
<event>
4 7 1.0 5000.0 7.905138e-03 7.739137e-02
21 -1 0 0 103 101  0.000000e+00  0.000000e+00  3.526076e+03  3.526076e+03 0.0 0.0 9.0
 1 -1 0 0 101   0  0.000000e+00  0.000000e+00 -1.610994e+03  1.610994e+03 0.0 0.0 9.0
 1  1 1 2 103   0  1.465132e+03 -1.843815e+03  1.352361e+03  2.715722e+03 0.0047 0.0 9.0
22  1 1 2   0   0 -1.465132e+03  1.843815e+03  5.627215e+02  2.421347e+03 0.0 0.0 9.0
#pdf 21 1 5.424732e-01 2.478452e-01 5000.0 1.543627e-03 6.851905e-02
</event>
<event>
4 7 1.0 5000.0 7.905138e-03 7.739137e-02
21 -1 0 0 103 101  0.000000e+00  0.000000e+00  1.913310e+03  1.913310e+03 0.0 0.0 9.0
 1 -1 0 0 101   0  0.000000e+00  0.000000e+00 -3.261749e+03  3.261749e+03 0.0 0.0 9.0
 1  1 1 2 103   0  2.305241e+02  2.198212e+03  5.316783e+02  2.273315e+03 0.0047 0.0 9.0
22  1 1 2   0   0 -2.305241e+02 -2.198212e+03 -1.880117e+03  2.901744e+03 0.0 0.0 9.0
#pdf 21 1 2.943554e-01 5.018075e-01 5000.0 3.863748e-02 2.748637e-03
</event>
<event>
4 7 1.0 5000.0 7.905138e-03 7.739137e-02
 1 -1 0 0 101   0  0.000000e+00  0.000000e+00  2.668025e+03  2.668025e+03 0.0 0.0 9.0
21 -1 0 0 103 101  0.000000e+00  0.000000e+00 -2.364034e+03  2.364034e+03 0.0 0.0 9.0
22  1 1 2   0   0 -2.207357e+03  1.069662e+03 -3.881566e+02  2.483398e+03 0.0 0.0 9.0
 1  1 1 2 103   0  2.207357e+03 -1.069662e+03  6.921483e+02  2.548661e+03 0.0047 0.0 9.0
#pdf 1 21 4.104654e-01 3.636975e-01 5000.0 3.934003e-02 5.795426e-02
</event>
<event>
4 7 1.0 5000.0 7.905138e-03 7.739137e-02
 1 -1 0 0 101   0  0.000000e+00  0.000000e+00  2.037608e+03  2.037608e+03 0.0 0.0 9.0
21 -1 0 0 103 101  0.000000e+00  0.000000e+00 -3.002113e+03  3.002113e+03 0.0 0.0 9.0
 1  1 1 2 103   0 -7.125005e+02  7.651841e+02  1.801378e+03  2.082817e+03 0.0047 0.0 9.0
22  1 1 2   0   0  7.125005e+02 -7.651841e+02 -2.765884e+03  2.956903e+03 0.0 0.0 9.0
#pdf 1 21 3.134781e-01 4.618636e-01 5000.0 8.429209e-02 2.442874e-02
</event>
<event>
4 7 1.0 5000.0 7.905138e-03 7.739137e-02
21 -1 0 0 103 101  0.000000e+00  0.000000e+00  3.659743e+03  3.659743e+03 0.0 0.0 9.0
 1 -1 0 0 101   0  0.000000e+00  0.000000e+00 -1.624688e+03  1.624688e+03 0.0 0.0 9.0
22  1 1 2   0   0  2.031946e+03 -1.091198e+03  1.875143e+03  2.972486e+03 0.0 0.0 9.0
 1  1 1 2 103   0 -2.031946e+03  1.091198e+03  1.599121e+02  2.311945e+03 0.0047 0.0 9.0
#pdf 21 1 5.630374e-01 2.499520e-01 5000.0 1.140044e-03 6.677596e-02
</event>
<event>
4 7 1.0 5000.0 7.905138e-03 7.739137e-02
 1 -1 0 0 101   0  0.000000e+00  0.000000e+00  1.383289e+03  1.383289e+03 0.0 0.0 9.0
21 -1 0 0 103 101  0.000000e+00  0.000000e+00 -4.529201e+03  4.529201e+03 0.0 0.0 9.0
22  1 1 2   0   0  1.995020e+03 -4.811373e+02  1.195526e+02  2.055697e+03 0.0 0.0 9.0
 1  1 1 2 103   0 -1.995020e+03  4.811373e+02 -3.265465e+03  3.856793e+03 0.0047 0.0 9.0
#pdf 1 21 2.128137e-01 6.968002e-01 5000.0 1.606384e-01 9.640793e-04
</event>
<event>
4 7 1.0 5000.0 7.905138e-03 7.739137e-02
 1 -1 0 0 101   0  0.000000e+00  0.000000e+00  2.134413e+03  2.134413e+03 0.0 0.0 9.0
21 -1 0 0 103 101  0.000000e+00  0.000000e+00 -2.988186e+03  2.988186e+03 0.0 0.0 9.0
22  1 1 2   0   0 -2.055073e+03  5.383554e+02  9.580887e+02  2.330469e+03 0.0 0.0 9.0
 1  1 1 2 103   0  2.055073e+03 -5.383554e+02 -1.811862e+03  2.792131e+03 0.0047 0.0 9.0
#pdf 1 21 3.283712e-01 4.597210e-01 5000.0 7.573570e-02 2.494875e-02
</event>
<event>
4 7 1.0 5000.0 7.905138e-03 7.739137e-02
 1 -1 0 0 101   0  0.000000e+00  0.000000e+00  2.717116e+03  2.717116e+03 0.0 0.0 9.0
21 -1 0 0 103 101  0.000000e+00  0.000000e+00 -2.292653e+03  2.292653e+03 0.0 0.0 9.0
22  1 1 2   0   0  6.700683e+02 -3.555581e+02 -2.174161e+03  2.302692e+03 0.0 0.0 9.0
 1  1 1 2 103   0 -6.700683e+02  3.555581e+02  2.598625e+03  2.707077e+03 0.0047 0.0 9.0
#pdf 1 21 4.180179e-01 3.527158e-01 5000.0 3.680825e-02 6.311650e-02
</event>
<event>
4 7 1.0 5000.0 7.905138e-03 7.739137e-02
21 -1 0 0 103 101  0.000000e+00  0.000000e+00  3.781948e+03  3.781948e+03 0.0 0.0 9.0
 1 -1 0 0 101   0  0.000000e+00  0.000000e+00 -1.641499e+03  1.641499e+03 0.0 0.0 9.0
 1  1 1 2 103   0 -1.731466e+03  8.012551e+02 -6.738759e+02  2.023386e+03 0.0047 0.0 9.0
22  1 1 2   0   0  1.731466e+03 -8.012551e+02  2.814325e+03  3.400060e+03 0.0 0.0 9.0
#pdf 21 1 5.818382e-01 2.525382e-01 5000.0 8.542122e-04 6.467364e-02
</event>
<event>
4 7 1.0 5000.0 7.905138e-03 7.739137e-02
 1 -1 0 0 101   0  0.000000e+00  0.000000e+00  4.102834e+03  4.102834e+03 0.0 0.0 9.0
21 -1 0 0 103 101  0.000000e+00  0.000000e+00 -1.510664e+03  1.510664e+03 0.0 0.0 9.0
 1  1 1 2 103   0 -2.440163e+03 -4.879884e+02  1.379523e+03  2.845278e+03 0.0047 0.0 9.0
22  1 1 2   0   0  2.440163e+03  4.879884e+02  1.212647e+03  2.768219e+03 0.0 0.0 9.0
#pdf 1 21 6.312052e-01 2.324099e-01 5000.0 3.014509e-03 1.430677e-01
</event>
<event>
4 7 1.0 5000.0 7.905138e-03 7.739137e-02
 1 -1 0 0 101   0  0.000000e+00  0.000000e+00  3.773784e+03  3.773784e+03 0.0 0.0 9.0
21 -1 0 0 103 101  0.000000e+00  0.000000e+00 -1.738180e+03  1.738180e+03 0.0 0.0 9.0
 1  1 1 2 103   0 -1.279065e+03  2.206042e+03  1.274455e+03  2.850765e+03 0.0047 0.0 9.0
22  1 1 2   0   0  1.279065e+03 -2.206042e+03  7.611498e+02  2.661198e+03 0.0 0.0 9.0
#pdf 1 21 5.805822e-01 2.674122e-01 5000.0 6.258180e-03 1.150447e-01
</event>
<event>
4 7 1.0 5000.0 7.905138e-03 7.739137e-02
21 -1 0 0 103 101  0.000000e+00  0.000000e+00  4.073083e+03  4.073083e+03 0.0 0.0 9.0
 1 -1 0 0 101   0  0.000000e+00  0.000000e+00 -1.201528e+03  1.201528e+03 0.0 0.0 9.0
22  1 1 2   0   0  1.763329e+03  8.437644e+02  2.010752e+02  1.965120e+03 0.0 0.0 9.0
 1  1 1 2 103   0 -1.763329e+03 -8.437644e+02  2.670480e+03  3.309491e+03 0.0047 0.0 9.0
#pdf 21 1 6.266282e-01 1.848505e-01 5000.0 4.147054e-04 1.537797e-01
</event>
<event>
4 7 1.0 5000.0 7.905138e-03 7.739137e-02
 1 -1 0 0 101   0  0.000000e+00  0.000000e+00  2.286574e+03  2.286574e+03 0.0 0.0 9.0
21 -1 0 0 103 101  0.000000e+00  0.000000e+00 -2.832287e+03  2.832287e+03 0.0 0.0 9.0
 1  1 1 2 103   0 -8.124576e+01  2.125295e+03  1.132562e+03  2.409601e+03 0.0047 0.0 9.0
22  1 1 2   0   0  8.124576e+01 -2.125295e+03 -1.678276e+03  2.709260e+03 0.0 0.0 9.0
#pdf 1 21 3.517806e-01 4.357365e-01 5000.0 6.357202e-02 3.135615e-02
</event>
<event>
4 7 1.0 5000.0 7.905138e-03 7.739137e-02
 1 -1 0 0 101   0  0.000000e+00  0.000000e+00  2.688737e+03  2.688737e+03 0.0 0.0 9.0
21 -1 0 0 103 101  0.000000e+00  0.000000e+00 -2.224241e+03  2.224241e+03 0.0 0.0 9.0
22  1 1 2   0   0 -7.048742e+01  2.054868e+03 -1.097700e+03  2.330750e+03 0.0 0.0 9.0
 1  1 1 2 103   0  7.048742e+01 -2.054868e+03  1.562196e+03  2.582229e+03 0.0047 0.0 9.0
#pdf 1 21 4.136519e-01 3.421910e-01 5000.0 3.825670e-02 6.837142e-02
</event>
<event>
4 7 1.0 5000.0 7.905138e-03 7.739137e-02
 1 -1 0 0 101   0  0.000000e+00  0.000000e+00  3.060277e+03  3.060277e+03 0.0 0.0 9.0
21 -1 0 0 103 101  0.000000e+00  0.000000e+00 -2.141853e+03  2.141853e+03 0.0 0.0 9.0
 1  1 1 2 103   0 -1.951728e+03 -1.655862e+03  5.196701e+02  2.611738e+03 0.0047 0.0 9.0
22  1 1 2   0   0  1.951728e+03  1.655862e+03  3.987544e+02  2.590391e+03 0.0 0.0 9.0
#pdf 1 21 4.708119e-01 3.295158e-01 5000.0 2.235258e-02 7.510460e-02
</event>
<event>
4 7 1.0 5000.0 7.905138e-03 7.739137e-02
 1 -1 0 0 101   0  0.000000e+00  0.000000e+00  2.268513e+03  2.268513e+03 0.0 0.0 9.0
21 -1 0 0 103 101  0.000000e+00  0.000000e+00 -2.724259e+03  2.724259e+03 0.0 0.0 9.0
 1  1 1 2 103   0  1.017952e+02  1.408106e+03  1.826895e+03  2.308825e+03 0.0047 0.0 9.0
22  1 1 2   0   0 -1.017952e+02 -1.408106e+03 -2.282640e+03  2.683947e+03 0.0 0.0 9.0
#pdf 1 21 3.490021e-01 4.191167e-01 5000.0 6.493818e-02 3.645018e-02
</event>
<event>
4 7 1.0 5000.0 7.905138e-03 7.739137e-02
21 -1 0 0 103 101  0.000000e+00  0.000000e+00  3.275543e+03  3.275543e+03 0.0 0.0 9.0
 1 -1 0 0 101   0  0.000000e+00  0.000000e+00 -2.100573e+03  2.100573e+03 0.0 0.0 9.0
22  1 1 2   0   0  2.547626e+03 -4.613791e+02  1.018924e+03  2.782350e+03 0.0 0.0 9.0
 1  1 1 2 103   0 -2.547626e+03  4.613791e+02  1.560469e+02  2.593765e+03 0.0047 0.0 9.0
#pdf 21 1 5.039297e-01 3.231650e-01 5000.0 2.669019e-03 2.712151e-02
</event>
<event>
4 7 1.0 5000.0 7.905138e-03 7.739137e-02
 1 -1 0 0 101   0  0.000000e+00  0.000000e+00  1.575824e+03  1.575824e+03 0.0 0.0 9.0
21 -1 0 0 103 101  0.000000e+00  0.000000e+00 -3.987989e+03  3.987989e+03 0.0 0.0 9.0
 1  1 1 2 103   0 -6.292000e+02  2.106624e+03  1.304737e+02  2.202449e+03 0.0047 0.0 9.0
22  1 1 2   0   0  6.292000e+02 -2.106624e+03 -2.542639e+03  3.361364e+03 0.0 0.0 9.0
#pdf 1 21 2.424345e-01 6.135368e-01 5000.0 1.346071e-01 3.940518e-03
</event>
<event>
4 7 1.0 5000.0 7.905138e-03 7.739137e-02
21 -1 0 0 103 101  0.000000e+00  0.000000e+00  2.383323e+03  2.383323e+03 0.0 0.0 9.0
 1 -1 0 0 101   0  0.000000e+00  0.000000e+00 -2.636120e+03  2.636120e+03 0.0 0.0 9.0
 1  1 1 2 103   0  2.049440e+03  2.022514e+02  1.304268e+03  2.437668e+03 0.0047 0.0 9.0
22  1 1 2   0   0 -2.049440e+03 -2.022514e+02 -1.557065e+03  2.581775e+03 0.0 0.0 9.0
#pdf 21 1 3.666650e-01 4.055569e-01 5000.0 1.588729e-02 9.770359e-03
</event>
<event>
4 7 1.0 5000.0 7.905138e-03 7.739137e-02
 1 -1 0 0 101   0  0.000000e+00  0.000000e+00  1.688420e+03  1.688420e+03 0.0 0.0 9.0
21 -1 0 0 103 101  0.000000e+00  0.000000e+00 -3.697215e+03  3.697215e+03 0.0 0.0 9.0
22  1 1 2   0   0  6.506856e+02  1.396888e+03 -3.124024e+03  3.483420e+03 0.0 0.0 9.0
 1  1 1 2 103   0 -6.506856e+02 -1.396888e+03  1.115229e+03  1.902215e+03 0.0047 0.0 9.0
#pdf 1 21 2.597569e-01 5.688023e-01 5000.0 1.208135e-01 7.310398e-03
</event>
<event>
4 7 1.0 5000.0 7.905138e-03 7.739137e-02
21 -1 0 0 103 101  0.000000e+00  0.000000e+00  1.672853e+03  1.672853e+03 0.0 0.0 9.0
 1 -1 0 0 101   0  0.000000e+00  0.000000e+00 -3.851032e+03  3.851032e+03 0.0 0.0 9.0
 1  1 1 2 103   0  3.078041e+00  7.593517e+02 -3.724528e+03  3.801149e+03 0.0047 0.0 9.0
22  1 1 2   0   0 -3.078041e+00 -7.593517e+02  1.546348e+03  1.722736e+03 0.0 0.0 9.0
#pdf 21 1 2.573619e-01 5.924664e-01 5000.0 6.088871e-02 7.232690e-04
</event>
<event>
4 7 1.0 5000.0 7.905138e-03 7.739137e-02
21 -1 0 0 103 101  0.000000e+00  0.000000e+00  3.439240e+03  3.439240e+03 0.0 0.0 9.0
 1 -1 0 0 101   0  0.000000e+00  0.000000e+00 -1.798183e+03  1.798183e+03 0.0 0.0 9.0
 1  1 1 2 103   0 -1.885315e+03 -9.910870e+02  2.172230e+03  3.042244e+03 0.0047 0.0 9.0
22  1 1 2   0   0  1.885315e+03  9.910870e+02 -5.311729e+02  2.195179e+03 0.0 0.0 9.0
#pdf 21 1 5.291139e-01 2.766435e-01 5000.0 1.873632e-03 4.796528e-02
</event>
<event>
4 7 1.0 5000.0 7.905138e-03 7.739137e-02
21 -1 0 0 103 101  0.000000e+00  0.000000e+00  3.405310e+03  3.405310e+03 0.0 0.0 9.0
 1 -1 0 0 101   0  0.000000e+00  0.000000e+00 -1.824435e+03  1.824435e+03 0.0 0.0 9.0
22  1 1 2   0   0  1.396723e+03 -4.194145e+02  2.911036e+03  3.255898e+03 0.0 0.0 9.0
 1  1 1 2 103   0 -1.396723e+03  4.194145e+02 -1.330161e+03  1.973847e+03 0.0047 0.0 9.0
#pdf 21 1 5.238939e-01 2.806824e-01 5000.0 2.017544e-03 4.563933e-02
</event>
<event>
4 7 1.0 5000.0 7.905138e-03 7.739137e-02
21 -1 0 0 103 101  0.000000e+00  0.000000e+00  2.031640e+03  2.031640e+03 0.0 0.0 9.0
 1 -1 0 0 101   0  0.000000e+00  0.000000e+00 -3.033068e+03  3.033068e+03 0.0 0.0 9.0
 1  1 1 2 103   0  1.254087e+03 -5.131831e+01  1.684086e+03  2.100360e+03 0.0047 0.0 9.0
22  1 1 2   0   0 -1.254087e+03  5.131831e+01 -2.685515e+03  2.964347e+03 0.0 0.0 9.0
#pdf 21 1 3.125600e-01 4.666259e-01 5000.0 3.090117e-02 4.429074e-03
</event>
<event>
4 7 1.0 5000.0 7.905138e-03 7.739137e-02
 1 -1 0 0 101   0  0.000000e+00  0.000000e+00  1.883861e+03  1.883861e+03 0.0 0.0 9.0
21 -1 0 0 103 101  0.000000e+00  0.000000e+00 -3.051935e+03  3.051935e+03 0.0 0.0 9.0
22  1 1 2   0   0  1.326837e+03  1.954853e+03 -1.005240e+03  2.567577e+03 0.0 0.0 9.0
 1  1 1 2 103   0 -1.326837e+03 -1.954853e+03 -1.628331e+02  2.368219e+03 0.0047 0.0 9.0
#pdf 1 21 2.898248e-01 4.695284e-01 5000.0 9.925555e-02 2.264240e-02
</event>
<event>
4 7 1.0 5000.0 7.905138e-03 7.739137e-02
 1 -1 0 0 101   0  0.000000e+00  0.000000e+00  1.588001e+03  1.588001e+03 0.0 0.0 9.0
21 -1 0 0 103 101  0.000000e+00  0.000000e+00 -3.944155e+03  3.944155e+03 0.0 0.0 9.0
 1  1 1 2 103   0  2.287322e+02  2.076195e+03 -2.701732e+03  3.415005e+03 0.0047 0.0 9.0
22  1 1 2   0   0 -2.287322e+02 -2.076195e+03  3.455781e+02  2.117151e+03 0.0 0.0 9.0
#pdf 1 21 2.443078e-01 6.067930e-01 5000.0 1.330657e-01 4.348574e-03
</event>
<event>
4 7 1.0 5000.0 7.905138e-03 7.739137e-02
21 -1 0 0 103 101  0.000000e+00  0.000000e+00  2.294509e+03  2.294509e+03 0.0 0.0 9.0
 1 -1 0 0 101   0  0.000000e+00  0.000000e+00 -2.579836e+03  2.579836e+03 0.0 0.0 9.0
 1  1 1 2 103   0 -1.971417e+03 -7.588358e+01  1.283585e+03  2.353685e+03 0.0047 0.0 9.0
22  1 1 2   0   0  1.971417e+03  7.588358e+01 -1.568913e+03  2.520660e+03 0.0 0.0 9.0
#pdf 21 1 3.530014e-01 3.968979e-01 5000.0 1.880771e-02 1.089646e-02
</event>
<event>
4 7 1.0 5000.0 7.905138e-03 7.739137e-02
 1 -1 0 0 101   0  0.000000e+00  0.000000e+00  1.968208e+03  1.968208e+03 0.0 0.0 9.0
21 -1 0 0 103 101  0.000000e+00  0.000000e+00 -3.046550e+03  3.046550e+03 0.0 0.0 9.0
22  1 1 2   0   0  2.179866e+03  8.160744e+01  6.000299e+02  2.262412e+03 0.0 0.0 9.0
 1  1 1 2 103   0 -2.179866e+03 -8.160744e+01 -1.678372e+03  2.752345e+03 0.0047 0.0 9.0
#pdf 1 21 3.028012e-01 4.687000e-01 5000.0 9.083566e-02 2.283089e-02
</event>
<event>
4 7 1.0 5000.0 7.905138e-03 7.739137e-02
21 -1 0 0 103 101  0.000000e+00  0.000000e+00  1.656239e+03  1.656239e+03 0.0 0.0 9.0
 1 -1 0 0 101   0  0.000000e+00  0.000000e+00 -3.823365e+03  3.823365e+03 0.0 0.0 9.0
 1  1 1 2 103   0 -1.994221e+03  1.424326e+03 -4.611694e+02  2.493652e+03 0.0047 0.0 9.0
22  1 1 2   0   0  1.994221e+03 -1.424326e+03 -1.705956e+03  2.985952e+03 0.0 0.0 9.0
#pdf 21 1 2.548060e-01 5.882099e-01 5000.0 6.287007e-02 7.735907e-04
</event>
<event>
4 7 1.0 5000.0 7.905138e-03 7.739137e-02
 1 -1 0 0 101   0  0.000000e+00  0.000000e+00  3.360324e+03  3.360324e+03 0.0 0.0 9.0
21 -1 0 0 103 101  0.000000e+00  0.000000e+00 -1.742856e+03  1.742856e+03 0.0 0.0 9.0
 1  1 1 2 103   0 -1.735346e+03  1.508943e+03  1.603518e+03  2.803499e+03 0.0047 0.0 9.0
22  1 1 2   0   0  1.735346e+03 -1.508943e+03  1.394961e+01  2.299680e+03 0.0 0.0 9.0
#pdf 1 21 5.169729e-01 2.681317e-01 5000.0 1.367329e-02 1.145122e-01
</event>
<event>
4 7 1.0 5000.0 7.905138e-03 7.739137e-02
 1 -1 0 0 101   0  0.000000e+00  0.000000e+00  3.981188e+03  3.981188e+03 0.0 0.0 9.0
21 -1 0 0 103 101  0.000000e+00  0.000000e+00 -1.677009e+03  1.677009e+03 0.0 0.0 9.0
22  1 1 2   0   0  4.336084e+02  2.466312e+03  1.849548e+03  3.113124e+03 0.0 0.0 9.0
 1  1 1 2 103   0 -4.336084e+02 -2.466312e+03  4.546315e+02  2.545074e+03 0.0047 0.0 9.0
#pdf 1 21 6.124905e-01 2.580014e-01 5000.0 4.001661e-03 1.221652e-01
</event>
<event>
4 7 1.0 5000.0 7.905138e-03 7.739137e-02
21 -1 0 0 103 101  0.000000e+00  0.000000e+00  2.984488e+03  2.984488e+03 0.0 0.0 9.0
 1 -1 0 0 101   0  0.000000e+00  0.000000e+00 -2.046109e+03  2.046109e+03 0.0 0.0 9.0
 1  1 1 2 103   0  1.358836e+03  1.005775e+03 -1.365389e+03  2.173087e+03 0.0047 0.0 9.0
22  1 1 2   0   0 -1.358836e+03 -1.005775e+03  2.303768e+03  2.857511e+03 0.0 0.0 9.0
#pdf 21 1 4.591520e-01 3.147860e-01 5000.0 4.890469e-03 3.006088e-02
</event>
<event>
4 7 1.0 5000.0 7.905138e-03 7.739137e-02
 1 -1 0 0 101   0  0.000000e+00  0.000000e+00  3.534433e+03  3.534433e+03 0.0 0.0 9.0
21 -1 0 0 103 101  0.000000e+00  0.000000e+00 -1.759201e+03  1.759201e+03 0.0 0.0 9.0
22  1 1 2   0   0  1.852540e+03  2.898858e+02  2.632378e+03  3.231926e+03 0.0 0.0 9.0
 1  1 1 2 103   0 -1.852540e+03 -2.898858e+02 -8.571459e+02  2.061707e+03 0.0047 0.0 9.0
#pdf 1 21 5.437588e-01 2.706463e-01 5000.0 1.000097e-02 1.126638e-01
</event>
<event>
4 7 1.0 5000.0 7.905138e-03 7.739137e-02
 1 -1 0 0 101   0  0.000000e+00  0.000000e+00  2.186530e+03  2.186530e+03 0.0 0.0 9.0
21 -1 0 0 103 101  0.000000e+00  0.000000e+00 -2.683164e+03  2.683164e+03 0.0 0.0 9.0
22  1 1 2   0   0 -1.555063e+03 -1.486803e+03  8.701762e+02  2.320778e+03 0.0 0.0 9.0
 1  1 1 2 103   0  1.555063e+03  1.486803e+03 -1.366811e+03  2.548916e+03 0.0047 0.0 9.0
#pdf 1 21 3.363892e-01 4.127945e-01 5000.0 7.139541e-02 3.854599e-02
</event>
<event>
4 7 1.0 5000.0 7.905138e-03 7.739137e-02
21 -1 0 0 103 101  0.000000e+00  0.000000e+00  2.524760e+03  2.524760e+03 0.0 0.0 9.0
 1 -1 0 0 101   0  0.000000e+00  0.000000e+00 -2.621811e+03  2.621811e+03 0.0 0.0 9.0
 1  1 1 2 103   0 -4.458149e+02 -2.047337e+03 -1.541809e+03  2.601445e+03 0.0047 0.0 9.0
22  1 1 2   0   0  4.458149e+02  2.047337e+03  1.444758e+03  2.545126e+03 0.0 0.0 9.0
#pdf 21 1 3.884246e-01 4.033555e-01 5000.0 1.212186e-02 1.004604e-02
</event>
<event>
4 7 1.0 5000.0 7.905138e-03 7.739137e-02
21 -1 0 0 103 101  0.000000e+00  0.000000e+00  3.282237e+03  3.282237e+03 0.0 0.0 9.0
 1 -1 0 0 101   0  0.000000e+00  0.000000e+00 -1.788667e+03  1.788667e+03 0.0 0.0 9.0
22  1 1 2   0   0 -1.896408e+03 -2.645566e+02 -8.068831e+02  2.077839e+03 0.0 0.0 9.0
 1  1 1 2 103   0  1.896408e+03  2.645566e+02  2.300453e+03  2.993065e+03 0.0047 0.0 9.0
#pdf 21 1 5.049595e-01 2.751795e-01 5000.0 2.631213e-03 4.883592e-02
</event>
<event>
4 7 1.0 5000.0 7.905138e-03 7.739137e-02
 1 -1 0 0 101   0  0.000000e+00  0.000000e+00  3.275813e+03  3.275813e+03 0.0 0.0 9.0
21 -1 0 0 103 101  0.000000e+00  0.000000e+00 -1.896135e+03  1.896135e+03 0.0 0.0 9.0
 1  1 1 2 103   0 -1.035706e+03 -2.242626e+03  3.467661e+02  2.494455e+03 0.0047 0.0 9.0
22  1 1 2   0   0  1.035706e+03  2.242626e+03  1.032913e+03  2.677493e+03 0.0 0.0 9.0
#pdf 1 21 5.039713e-01 2.917130e-01 5000.0 1.579322e-02 9.799943e-02
</event>
<event>
4 7 1.0 5000.0 7.905138e-03 7.739137e-02
 1 -1 0 0 101   0  0.000000e+00  0.000000e+00  2.679573e+03  2.679573e+03 0.0 0.0 9.0
21 -1 0 0 103 101  0.000000e+00  0.000000e+00 -2.361921e+03  2.361921e+03 0.0 0.0 9.0
 1  1 1 2 103   0  2.118610e+03 -1.134789e+03  9.037341e+02  2.567682e+03 0.0047 0.0 9.0
22  1 1 2   0   0 -2.118610e+03  1.134789e+03 -5.860823e+02  2.473812e+03 0.0 0.0 9.0
#pdf 1 21 4.122420e-01 3.633725e-01 5000.0 3.873328e-02 5.810247e-02
</event>
<event>
4 7 1.0 5000.0 7.905138e-03 7.739137e-02
21 -1 0 0 103 101  0.000000e+00  0.000000e+00  3.813452e+03  3.813452e+03 0.0 0.0 9.0
 1 -1 0 0 101   0  0.000000e+00  0.000000e+00 -1.553424e+03  1.553424e+03 0.0 0.0 9.0
 1  1 1 2 103   0 -1.994057e+03 -9.818329e+02  3.654347e+01  2.222970e+03 0.0047 0.0 9.0
22  1 1 2   0   0  1.994057e+03  9.818329e+02  2.223485e+03  3.143906e+03 0.0 0.0 9.0
#pdf 21 1 5.866849e-01 2.389882e-01 5000.0 7.922915e-04 7.657984e-02
</event>
<event>
4 7 1.0 5000.0 7.905138e-03 7.739137e-02
 1 -1 0 0 101   0  0.000000e+00  0.000000e+00  2.084188e+03  2.084188e+03 0.0 0.0 9.0
21 -1 0 0 103 101  0.000000e+00  0.000000e+00 -2.928079e+03  2.928079e+03 0.0 0.0 9.0
 1  1 1 2 103   0 -7.117327e+02 -9.827194e+02 -2.604937e+03  2.873674e+03 0.0047 0.0 9.0
22  1 1 2   0   0  7.117327e+02  9.827194e+02  1.761046e+03  2.138594e+03 0.0 0.0 9.0
#pdf 1 21 3.206443e-01 4.504738e-01 5000.0 8.009435e-02 2.729007e-02
</event>
<event>
4 7 1.0 5000.0 7.905138e-03 7.739137e-02
21 -1 0 0 103 101  0.000000e+00  0.000000e+00  4.152464e+03  4.152464e+03 0.0 0.0 9.0
 1 -1 0 0 101   0  0.000000e+00  0.000000e+00 -1.425406e+03  1.425406e+03 0.0 0.0 9.0
22  1 1 2   0   0  1.894799e+03  6.868480e+02  2.925645e+03  3.552664e+03 0.0 0.0 9.0
 1  1 1 2 103   0 -1.894799e+03 -6.868480e+02 -1.985861e+02  2.025206e+03 0.0047 0.0 9.0
#pdf 21 1 6.388407e-01 2.192932e-01 5000.0 3.367230e-04 9.816154e-02
</event>
<event>
4 7 1.0 5000.0 7.905138e-03 7.739137e-02
21 -1 0 0 103 101  0.000000e+00  0.000000e+00  1.980720e+03  1.980720e+03 0.0 0.0 9.0
 1 -1 0 0 101   0  0.000000e+00  0.000000e+00 -2.279820e+03  2.279820e+03 0.0 0.0 9.0
22  1 1 2   0   0  1.654498e+03 -2.652231e+01  1.187021e+03  2.036439e+03 0.0 0.0 9.0
 1  1 1 2 103   0 -1.654498e+03  2.652231e+01 -1.486122e+03  2.224101e+03 0.0047 0.0 9.0
#pdf 21 1 3.047261e-01 3.507416e-01 5000.0 3.402492e-02 1.934198e-02
</event>
<event>
4 7 1.0 5000.0 7.905138e-03 7.739137e-02
 1 -1 0 0 101   0  0.000000e+00  0.000000e+00  1.766283e+03  1.766283e+03 0.0 0.0 9.0
21 -1 0 0 103 101  0.000000e+00  0.000000e+00 -3.085047e+03  3.085047e+03 0.0 0.0 9.0
 1  1 1 2 103   0  5.819916e+02  2.190152e+03 -1.241282e+03  2.583846e+03 0.0047 0.0 9.0
22  1 1 2   0   0 -5.819916e+02 -2.190152e+03 -7.748199e+01  2.267484e+03 0.0 0.0 9.0
#pdf 1 21 2.717358e-01 4.746226e-01 5000.0 1.118692e-01 2.150791e-02
</event>
<event>
4 7 1.0 5000.0 7.905138e-03 7.739137e-02
 1 -1 0 0 101   0  0.000000e+00  0.000000e+00  1.877334e+03  1.877334e+03 0.0 0.0 9.0
21 -1 0 0 103 101  0.000000e+00  0.000000e+00 -3.348811e+03  3.348811e+03 0.0 0.0 9.0
22  1 1 2   0   0  1.005326e+02 -2.117284e+03 -2.131552e+03  3.006079e+03 0.0 0.0 9.0
 1  1 1 2 103   0 -1.005326e+02  2.117284e+03  6.600751e+02  2.220067e+03 0.0047 0.0 9.0
#pdf 1 21 2.888207e-01 5.152017e-01 5000.0 9.992780e-02 1.394861e-02
</event>
<event>
4 7 1.0 5000.0 7.905138e-03 7.739137e-02
 1 -1 0 0 101   0  0.000000e+00  0.000000e+00  2.234758e+03  2.234758e+03 0.0 0.0 9.0
21 -1 0 0 103 101  0.000000e+00  0.000000e+00 -2.725235e+03  2.725235e+03 0.0 0.0 9.0
22  1 1 2   0   0 -6.953845e+02 -5.712200e+01  2.133575e+03  2.244764e+03 0.0 0.0 9.0
 1  1 1 2 103   0  6.953845e+02  5.712200e+01 -2.624051e+03  2.715229e+03 0.0047 0.0 9.0
#pdf 1 21 3.438090e-01 4.192669e-01 5000.0 6.754471e-02 3.640145e-02
</event>
<event>
4 7 1.0 5000.0 7.905138e-03 7.739137e-02
 1 -1 0 0 101   0  0.000000e+00  0.000000e+00  3.268302e+03  3.268302e+03 0.0 0.0 9.0
21 -1 0 0 103 101  0.000000e+00  0.000000e+00 -1.894913e+03  1.894913e+03 0.0 0.0 9.0
22  1 1 2   0   0  2.274140e+03 -4.625769e+02 -2.454734e+02  2.333655e+03 0.0 0.0 9.0
 1  1 1 2 103   0 -2.274140e+03  4.625769e+02  1.618862e+03  2.829559e+03 0.0047 0.0 9.0
#pdf 1 21 5.028157e-01 2.915251e-01 5000.0 1.599323e-02 9.812401e-02
</event>
<event>
4 7 1.0 5000.0 7.905138e-03 7.739137e-02
 1 -1 0 0 101   0  0.000000e+00  0.000000e+00  3.088537e+03  3.088537e+03 0.0 0.0 9.0
21 -1 0 0 103 101  0.000000e+00  0.000000e+00 -2.082496e+03  2.082496e+03 0.0 0.0 9.0
22  1 1 2   0   0  4.069440e+02 -8.874519e+02  2.889277e+03  3.049770e+03 0.0 0.0 9.0
 1  1 1 2 103   0 -4.069440e+02  8.874519e+02 -1.883236e+03  2.121262e+03 0.0047 0.0 9.0
#pdf 1 21 4.751595e-01 3.203839e-01 5000.0 2.139082e-02 8.024413e-02
</event>
<event>
4 7 1.0 5000.0 7.905138e-03 7.739137e-02
21 -1 0 0 103 101  0.000000e+00  0.000000e+00  2.851283e+03  2.851283e+03 0.0 0.0 9.0
 1 -1 0 0 101   0  0.000000e+00  0.000000e+00 -2.133327e+03  2.133327e+03 0.0 0.0 9.0
22  1 1 2   0   0  1.763511e+03  7.668549e+02  1.919492e+03  2.717073e+03 0.0 0.0 9.0
 1  1 1 2 103   0 -1.763511e+03 -7.668549e+02 -1.201535e+03  2.267537e+03 0.0047 0.0 9.0
#pdf 21 1 4.386590e-01 3.282041e-01 5000.0 6.400813e-03 2.550061e-02
</event>
<event>
4 7 1.0 5000.0 7.905138e-03 7.739137e-02
21 -1 0 0 103 101  0.000000e+00  0.000000e+00  3.961448e+03  3.961448e+03 0.0 0.0 9.0
 1 -1 0 0 101   0  0.000000e+00  0.000000e+00 -1.605487e+03  1.605487e+03 0.0 0.0 9.0
 1  1 1 2 103   0  1.569270e+03  2.746473e+02  3.335734e+03  3.696642e+03 0.0047 0.0 9.0
22  1 1 2   0   0 -1.569270e+03 -2.746473e+02 -9.797731e+02  1.870293e+03 0.0 0.0 9.0
#pdf 21 1 6.094536e-01 2.469980e-01 5000.0 5.511080e-04 6.922649e-02
</event>
<event>
4 7 1.0 5000.0 7.905138e-03 7.739137e-02
21 -1 0 0 103 101  0.000000e+00  0.000000e+00  2.006400e+03  2.006400e+03 0.0 0.0 9.0
 1 -1 0 0 101   0  0.000000e+00  0.000000e+00 -3.151905e+03  3.151905e+03 0.0 0.0 9.0
22  1 1 2   0   0 -5.946322e+02  2.334895e+02  1.921792e+03  2.025189e+03 0.0 0.0 9.0
 1  1 1 2 103   0  5.946322e+02 -2.334895e+02 -3.067297e+03  3.133116e+03 0.0047 0.0 9.0
#pdf 21 1 3.086769e-01 4.849085e-01 5000.0 3.242058e-02 3.463750e-03
</event>
<event>
4 7 1.0 5000.0 7.905138e-03 7.739137e-02
 1 -1 0 0 101   0  0.000000e+00  0.000000e+00  2.306310e+03  2.306310e+03 0.0 0.0 9.0
21 -1 0 0 103 101  0.000000e+00  0.000000e+00 -2.602784e+03  2.602784e+03 0.0 0.0 9.0
 1  1 1 2 103   0  1.291077e+03  1.930920e+03  6.326064e+02  2.407389e+03 0.0047 0.0 9.0
22  1 1 2   0   0 -1.291077e+03 -1.930920e+03 -9.290802e+02  2.501704e+03 0.0 0.0 9.0
#pdf 1 21 3.548169e-01 4.004282e-01 5000.0 6.210108e-02 4.290163e-02
</event>
<event>
4 7 1.0 5000.0 7.905138e-03 7.739137e-02
21 -1 0 0 103 101  0.000000e+00  0.000000e+00  2.489360e+03  2.489360e+03 0.0 0.0 9.0
 1 -1 0 0 101   0  0.000000e+00  0.000000e+00 -2.531626e+03  2.531626e+03 0.0 0.0 9.0
 1  1 1 2 103   0 -2.107984e+03  5.819418e+02  1.211743e+03  2.500115e+03 0.0047 0.0 9.0
22  1 1 2   0   0  2.107984e+03 -5.819418e+02 -1.254009e+03  2.520871e+03 0.0 0.0 9.0
#pdf 21 1 3.829785e-01 3.894809e-01 5000.0 1.298275e-02 1.196149e-02
</event>
<event>
4 7 1.0 5000.0 7.905138e-03 7.739137e-02
21 -1 0 0 103 101  0.000000e+00  0.000000e+00  3.181235e+03  3.181235e+03 0.0 0.0 9.0
 1 -1 0 0 101   0  0.000000e+00  0.000000e+00 -1.974904e+03  1.974904e+03 0.0 0.0 9.0
 1  1 1 2 103   0  2.503295e+03 -1.233486e+02  5.717801e+02  2.570727e+03 0.0047 0.0 9.0
22  1 1 2   0   0 -2.503295e+03  1.233486e+02  6.345504e+02  2.585412e+03 0.0 0.0 9.0
#pdf 21 1 4.894207e-01 3.038314e-01 5000.0 3.257987e-03 3.439493e-02
</event>
<event>
4 7 1.0 5000.0 7.905138e-03 7.739137e-02
 1 -1 0 0 101   0  0.000000e+00  0.000000e+00  2.310442e+03  2.310442e+03 0.0 0.0 9.0
21 -1 0 0 103 101  0.000000e+00  0.000000e+00 -2.704427e+03  2.704427e+03 0.0 0.0 9.0
 1  1 1 2 103   0 -1.474187e+03 -1.172486e+03  1.451413e+03  2.377930e+03 0.0047 0.0 9.0
22  1 1 2   0   0  1.474187e+03  1.172486e+03 -1.845398e+03  2.636939e+03 0.0 0.0 9.0
#pdf 1 21 3.554526e-01 4.160656e-01 5000.0 6.179647e-02 3.745081e-02
</event>
<event>
4 7 1.0 5000.0 7.905138e-03 7.739137e-02
21 -1 0 0 103 101  0.000000e+00  0.000000e+00  2.946236e+03  2.946236e+03 0.0 0.0 9.0
 1 -1 0 0 101   0  0.000000e+00  0.000000e+00 -2.120555e+03  2.120555e+03 0.0 0.0 9.0
 1  1 1 2 103   0 -1.184141e+03  1.092607e+03  2.349667e+03  2.849020e+03 0.0047 0.0 9.0
22  1 1 2   0   0  1.184141e+03 -1.092607e+03 -1.523986e+03  2.217772e+03 0.0 0.0 9.0
#pdf 21 1 4.532671e-01 3.262392e-01 5000.0 5.287651e-03 2.612083e-02
</event>
<event>
4 7 1.0 5000.0 7.905138e-03 7.739137e-02
 1 -1 0 0 101   0  0.000000e+00  0.000000e+00  1.800425e+03  1.800425e+03 0.0 0.0 9.0
21 -1 0 0 103 101  0.000000e+00  0.000000e+00 -3.551351e+03  3.551351e+03 0.0 0.0 9.0
22  1 1 2   0   0 -8.375885e+02 -1.319531e+03  1.228071e+03  1.987681e+03 0.0 0.0 9.0
 1  1 1 2 103   0  8.375885e+02  1.319531e+03 -2.978997e+03  3.364095e+03 0.0047 0.0 9.0
#pdf 1 21 2.769885e-01 5.463617e-01 5000.0 1.080932e-01 9.690336e-03
</event>
<event>
4 7 1.0 5000.0 7.905138e-03 7.739137e-02
 1 -1 0 0 101   0  0.000000e+00  0.000000e+00  1.773542e+03  1.773542e+03 0.0 0.0 9.0
21 -1 0 0 103 101  0.000000e+00  0.000000e+00 -3.308137e+03  3.308137e+03 0.0 0.0 9.0
22  1 1 2   0   0 -1.981121e+03 -2.514178e+02 -2.205222e+03  2.975073e+03 0.0 0.0 9.0
 1  1 1 2 103   0  1.981121e+03  2.514178e+02  6.706270e+02  2.106607e+03 0.0047 0.0 9.0
#pdf 1 21 2.728526e-01 5.089442e-01 5000.0 1.110587e-01 1.495473e-02
</event>
<event>
4 7 1.0 5000.0 7.905138e-03 7.739137e-02
21 -1 0 0 103 101  0.000000e+00  0.000000e+00  1.511859e+03  1.511859e+03 0.0 0.0 9.0
 1 -1 0 0 101   0  0.000000e+00  0.000000e+00 -3.788133e+03  3.788133e+03 0.0 0.0 9.0
22  1 1 2   0   0  2.068350e+03  9.060452e+02 -2.015749e+03  3.026918e+03 0.0 0.0 9.0
 1  1 1 2 103   0 -2.068350e+03 -9.060452e+02 -2.605257e+02  2.273074e+03 0.0047 0.0 9.0
#pdf 21 1 2.325936e-01 5.827897e-01 5000.0 8.291159e-02 8.417382e-04
</event>
<event>
4 7 1.0 5000.0 7.905138e-03 7.739137e-02
21 -1 0 0 103 101  0.000000e+00  0.000000e+00  3.394783e+03  3.394783e+03 0.0 0.0 9.0
 1 -1 0 0 101   0  0.000000e+00  0.000000e+00 -1.889522e+03  1.889522e+03 0.0 0.0 9.0
22  1 1 2   0   0 -1.048610e+03 -5.965316e+01  3.156879e+03  3.327015e+03 0.0 0.0 9.0
 1  1 1 2 103   0  1.048610e+03  5.965316e+01 -1.651618e+03  1.957290e+03 0.0047 0.0 9.0
#pdf 21 1 5.222743e-01 2.906956e-01 5000.0 2.064227e-03 4.039750e-02
</event>
<event>
4 7 1.0 5000.0 7.905138e-03 7.739137e-02
21 -1 0 0 103 101  0.000000e+00  0.000000e+00  1.856829e+03  1.856829e+03 0.0 0.0 9.0
 1 -1 0 0 101   0  0.000000e+00  0.000000e+00 -3.464195e+03  3.464195e+03 0.0 0.0 9.0
22  1 1 2   0   0 -1.205295e+03 -1.659883e+03  7.608740e+02  2.187893e+03 0.0 0.0 9.0
 1  1 1 2 103   0  1.205295e+03  1.659883e+03 -2.368241e+03  3.133131e+03 0.0047 0.0 9.0
#pdf 21 1 2.856660e-01 5.329531e-01 5000.0 4.293517e-02 1.773117e-03
</event>
<event>
4 7 1.0 5000.0 7.905138e-03 7.739137e-02
21 -1 0 0 103 101  0.000000e+00  0.000000e+00  2.792784e+03  2.792784e+03 0.0 0.0 9.0
 1 -1 0 0 101   0  0.000000e+00  0.000000e+00 -2.327310e+03  2.327310e+03 0.0 0.0 9.0
 1  1 1 2 103   0  1.389077e+03 -2.057334e+03 -3.506392e+02  2.507011e+03 0.0047 0.0 9.0
22  1 1 2   0   0 -1.389077e+03  2.057334e+03  8.161128e+02  2.613082e+03 0.0 0.0 9.0
#pdf 21 1 4.296590e-01 3.580477e-01 5000.0 7.182321e-03 1.766623e-02
</event>
<event>
4 7 1.0 5000.0 7.905138e-03 7.739137e-02
 1 -1 0 0 101   0  0.000000e+00  0.000000e+00  3.929709e+03  3.929709e+03 0.0 0.0 9.0
21 -1 0 0 103 101  0.000000e+00  0.000000e+00 -1.589756e+03  1.589756e+03 0.0 0.0 9.0
 1  1 1 2 103   0  2.019167e+02  1.167345e+03 -1.260075e+03  1.729524e+03 0.0047 0.0 9.0
22  1 1 2   0   0 -2.019167e+02 -1.167345e+03  3.600027e+03  3.789942e+03 0.0 0.0 9.0
#pdf 1 21 6.045707e-01 2.445779e-01 5000.0 4.489884e-03 1.328445e-01
</event>
<event>
4 7 1.0 5000.0 7.905138e-03 7.739137e-02
21 -1 0 0 103 101  0.000000e+00  0.000000e+00  2.084200e+03  2.084200e+03 0.0 0.0 9.0
 1 -1 0 0 101   0  0.000000e+00  0.000000e+00 -2.774787e+03  2.774787e+03 0.0 0.0 9.0
 1  1 1 2 103   0  1.019624e+03 -6.314131e+02  1.760524e+03  2.130202e+03 0.0047 0.0 9.0
22  1 1 2   0   0 -1.019624e+03  6.314131e+02 -2.451111e+03  2.728784e+03 0.0 0.0 9.0
#pdf 21 1 3.206461e-01 4.268903e-01 5000.0 2.797065e-02 7.442698e-03
</event>
<event>
4 7 1.0 5000.0 7.905138e-03 7.739137e-02
21 -1 0 0 103 101  0.000000e+00  0.000000e+00  2.824655e+03  2.824655e+03 0.0 0.0 9.0
 1 -1 0 0 101   0  0.000000e+00  0.000000e+00 -2.613713e+03  2.613713e+03 0.0 0.0 9.0
22  1 1 2   0   0 -1.593670e+03 -6.146540e+02  2.220177e+03  2.801208e+03 0.0 0.0 9.0
 1  1 1 2 103   0  1.593670e+03  6.146540e+02 -2.009235e+03  2.637160e+03 0.0047 0.0 9.0
#pdf 21 1 4.345623e-01 4.021097e-01 5000.0 6.746237e-03 1.020511e-02
</event>
<event>
4 7 1.0 5000.0 7.905138e-03 7.739137e-02
21 -1 0 0 103 101  0.000000e+00  0.000000e+00  2.889017e+03  2.889017e+03 0.0 0.0 9.0
 1 -1 0 0 101   0  0.000000e+00  0.000000e+00 -2.075702e+03  2.075702e+03 0.0 0.0 9.0
22  1 1 2   0   0 -1.547951e+02 -2.436561e+03  5.988531e+02  2.513845e+03 0.0 0.0 9.0
 1  1 1 2 103   0  1.547951e+02  2.436561e+03  2.144623e+02  2.450874e+03 0.0047 0.0 9.0
#pdf 21 1 4.444642e-01 3.193387e-01 5000.0 5.930483e-03 2.842229e-02
</event>
<event>
4 7 1.0 5000.0 7.905138e-03 7.739137e-02
21 -1 0 0 103 101  0.000000e+00  0.000000e+00  3.734340e+03  3.734340e+03 0.0 0.0 9.0
 1 -1 0 0 101   0  0.000000e+00  0.000000e+00 -1.714398e+03  1.714398e+03 0.0 0.0 9.0
 1  1 1 2 103   0  1.738763e+03  4.785963e+02 -9.009563e+02  2.015955e+03 0.0047 0.0 9.0
22  1 1 2   0   0 -1.738763e+03 -4.785963e+02  2.920899e+03  3.432783e+03 0.0 0.0 9.0
#pdf 21 1 5.745138e-01 2.637535e-01 5000.0 9.561456e-04 5.621599e-02
</event>
<event>
4 7 1.0 5000.0 7.905138e-03 7.739137e-02
21 -1 0 0 103 101  0.000000e+00  0.000000e+00  3.747231e+03  3.747231e+03 0.0 0.0 9.0
 1 -1 0 0 101   0  0.000000e+00  0.000000e+00 -1.649688e+03  1.649688e+03 0.0 0.0 9.0
22  1 1 2   0   0  2.335233e+03  8.457319e+02  1.173414e+03  2.746903e+03 0.0 0.0 9.0
 1  1 1 2 103   0 -2.335233e+03 -8.457319e+02  9.241283e+02  2.650016e+03 0.0047 0.0 9.0
#pdf 21 1 5.764971e-01 2.537982e-01 5000.0 9.274449e-04 6.366661e-02
</event>
<event>
4 7 1.0 5000.0 7.905138e-03 7.739137e-02
 1 -1 0 0 101   0  0.000000e+00  0.000000e+00  4.070333e+03  4.070333e+03 0.0 0.0 9.0
21 -1 0 0 103 101  0.000000e+00  0.000000e+00 -1.482095e+03  1.482095e+03 0.0 0.0 9.0
22  1 1 2   0   0  1.623032e+02  8.302095e+02  3.900480e+03  3.991157e+03 0.0 0.0 9.0
 1  1 1 2 103   0 -1.623032e+02 -8.302095e+02 -1.312242e+03  1.561272e+03 0.0047 0.0 9.0
#pdf 1 21 6.262051e-01 2.280147e-01 5000.0 3.257225e-03 1.468865e-01
</event>
<event>
4 7 1.0 5000.0 7.905138e-03 7.739137e-02
21 -1 0 0 103 101  0.000000e+00  0.000000e+00  2.312475e+03  2.312475e+03 0.0 0.0 9.0
 1 -1 0 0 101   0  0.000000e+00  0.000000e+00 -2.692515e+03  2.692515e+03 0.0 0.0 9.0
22  1 1 2   0   0  9.849652e+02  1.930878e+03 -1.429694e+03  2.596626e+03 0.0 0.0 9.0
 1  1 1 2 103   0 -9.849652e+02 -1.930878e+03  1.049653e+03  2.408364e+03 0.0047 0.0 9.0
#pdf 21 1 3.557653e-01 4.142331e-01 5000.0 1.817070e-02 8.749605e-03
</event>
<event>
4 7 1.0 5000.0 7.905138e-03 7.739137e-02
 1 -1 0 0 101   0  0.000000e+00  0.000000e+00  2.366724e+03  2.366724e+03 0.0 0.0 9.0
21 -1 0 0 103 101  0.000000e+00  0.000000e+00 -2.612293e+03  2.612293e+03 0.0 0.0 9.0
 1  1 1 2 103   0 -8.400933e+02  2.117063e+03  8.758581e+02  2.440254e+03 0.0047 0.0 9.0
22  1 1 2   0   0  8.400933e+02 -2.117063e+03 -1.121428e+03  2.538762e+03 0.0 0.0 9.0
#pdf 1 21 3.641113e-01 4.018913e-01 5000.0 5.776584e-02 4.236815e-02
</event>
<event>
4 7 1.0 5000.0 7.905138e-03 7.739137e-02
 1 -1 0 0 101   0  0.000000e+00  0.000000e+00  2.585434e+03  2.585434e+03 0.0 0.0 9.0
21 -1 0 0 103 101  0.000000e+00  0.000000e+00 -2.272216e+03  2.272216e+03 0.0 0.0 9.0
22  1 1 2   0   0 -2.234942e+03  5.673341e+02 -5.918300e+02  2.380566e+03 0.0 0.0 9.0
 1  1 1 2 103   0  2.234942e+03 -5.673341e+02  9.050484e+02  2.477084e+03 0.0047 0.0 9.0
#pdf 1 21 3.977591e-01 3.495717e-01 5000.0 4.388746e-02 6.465651e-02
</event>
<event>
4 7 1.0 5000.0 7.905138e-03 7.739137e-02
 1 -1 0 0 101   0  0.000000e+00  0.000000e+00  3.049916e+03  3.049916e+03 0.0 0.0 9.0
21 -1 0 0 103 101  0.000000e+00  0.000000e+00 -2.025728e+03  2.025728e+03 0.0 0.0 9.0
22  1 1 2   0   0 -9.999466e+02 -1.503696e+02  2.830420e+03  3.005625e+03 0.0 0.0 9.0
 1  1 1 2 103   0  9.999466e+02  1.503696e+02 -1.806232e+03  2.070019e+03 0.0047 0.0 9.0
#pdf 1 21 4.692178e-01 3.116505e-01 5000.0 2.271294e-02 8.538938e-02
</event>
<event>
4 7 1.0 5000.0 7.905138e-03 7.739137e-02
21 -1 0 0 103 101  0.000000e+00  0.000000e+00  1.746588e+03  1.746588e+03 0.0 0.0 9.0
 1 -1 0 0 101   0  0.000000e+00  0.000000e+00 -3.374017e+03  3.374017e+03 0.0 0.0 9.0
 1  1 1 2 103   0  3.902219e+02 -4.990247e+02 -3.285306e+03  3.345823e+03 0.0047 0.0 9.0
22  1 1 2   0   0 -3.902219e+02  4.990247e+02  1.657876e+03  1.774782e+03 0.0 0.0 9.0
#pdf 21 1 2.687058e-01 5.190796e-01 5000.0 5.288118e-02 2.159580e-03
</event>
<event>
4 7 1.0 5000.0 7.905138e-03 7.739137e-02
21 -1 0 0 103 101  0.000000e+00  0.000000e+00  1.461151e+03  1.461151e+03 0.0 0.0 9.0
 1 -1 0 0 101   0  0.000000e+00  0.000000e+00 -3.881447e+03  3.881447e+03 0.0 0.0 9.0
 1  1 1 2 103   0  1.972486e+02 -2.095391e+03  3.984018e+01  2.105032e+03 0.0047 0.0 9.0
22  1 1 2   0   0 -1.972486e+02  2.095391e+03 -2.460135e+03  3.237566e+03 0.0 0.0 9.0
#pdf 21 1 2.247925e-01 5.971456e-01 5000.0 9.148834e-02 6.716270e-04
</event>
<event>
4 7 1.0 5000.0 7.905138e-03 7.739137e-02
 1 -1 0 0 101   0  0.000000e+00  0.000000e+00  3.584452e+03  3.584452e+03 0.0 0.0 9.0
21 -1 0 0 103 101  0.000000e+00  0.000000e+00 -1.605676e+03  1.605676e+03 0.0 0.0 9.0
22  1 1 2   0   0  1.221489e+03  8.102839e+02 -1.064956e+03  1.811830e+03 0.0 0.0 9.0
 1  1 1 2 103   0 -1.221489e+03 -8.102839e+02  3.043732e+03  3.378299e+03 0.0047 0.0 9.0
#pdf 1 21 5.514542e-01 2.470271e-01 5000.0 9.098951e-03 1.308515e-01
</event>
<event>
4 7 1.0 5000.0 7.905138e-03 7.739137e-02
 1 -1 0 0 101   0  0.000000e+00  0.000000e+00  1.765076e+03  1.765076e+03 0.0 0.0 9.0
21 -1 0 0 103 101  0.000000e+00  0.000000e+00 -2.753437e+03  2.753437e+03 0.0 0.0 9.0
 1  1 1 2 103   0 -6.663008e+02  1.863832e+03  5.005770e+02  2.041667e+03 0.0047 0.0 9.0
22  1 1 2   0   0  6.663008e+02 -1.863832e+03 -1.488939e+03  2.476846e+03 0.0 0.0 9.0
#pdf 1 21 2.715501e-01 4.236057e-01 5000.0 1.120044e-01 3.501425e-02
</event>
<event>
4 7 1.0 5000.0 7.905138e-03 7.739137e-02
21 -1 0 0 103 101  0.000000e+00  0.000000e+00  3.375267e+03  3.375267e+03 0.0 0.0 9.0
 1 -1 0 0 101   0  0.000000e+00  0.000000e+00 -1.758282e+03  1.758282e+03 0.0 0.0 9.0
22  1 1 2   0   0  1.202388e+03  2.117029e+03  8.973967e+02  2.594778e+03 0.0 0.0 9.0
 1  1 1 2 103   0 -1.202388e+03 -2.117029e+03  7.195889e+02  2.538771e+03 0.0047 0.0 9.0
#pdf 21 1 5.192719e-01 2.705049e-01 5000.0 2.153710e-03 5.172329e-02
</event>
<event>
4 7 1.0 5000.0 7.905138e-03 7.739137e-02
21 -1 0 0 103 101  0.000000e+00  0.000000e+00  1.658039e+03  1.658039e+03 0.0 0.0 9.0
 1 -1 0 0 101   0  0.000000e+00  0.000000e+00 -3.794103e+03  3.794103e+03 0.0 0.0 9.0
 1  1 1 2 103   0  1.815076e+03 -8.705387e+01 -2.947028e+03  3.462233e+03 0.0047 0.0 9.0
22  1 1 2   0   0 -1.815076e+03  8.705387e+01  8.109648e+02  1.989910e+03 0.0 0.0 9.0
#pdf 21 1 2.550830e-01 5.837082e-01 5000.0 6.265258e-02 8.298489e-04
</event>
<event>
4 7 1.0 5000.0 7.905138e-03 7.739137e-02
 1 -1 0 0 101   0  0.000000e+00  0.000000e+00  2.996377e+03  2.996377e+03 0.0 0.0 9.0
21 -1 0 0 103 101  0.000000e+00  0.000000e+00 -2.388170e+03  2.388170e+03 0.0 0.0 9.0
22  1 1 2   0   0 -1.162787e+02 -1.761190e+03  2.327162e+03  2.920787e+03 0.0 0.0 9.0
 1  1 1 2 103   0  1.162787e+02  1.761190e+03 -1.718955e+03  2.463761e+03 0.0047 0.0 9.0
#pdf 1 21 4.609811e-01 3.674108e-01 5000.0 2.464164e-02 5.627526e-02
</event>
<event>
4 7 1.0 5000.0 7.905138e-03 7.739137e-02
 1 -1 0 0 101   0  0.000000e+00  0.000000e+00  1.807108e+03  1.807108e+03 0.0 0.0 9.0
21 -1 0 0 103 101  0.000000e+00  0.000000e+00 -2.998915e+03  2.998915e+03 0.0 0.0 9.0
 1  1 1 2 103   0 -5.495728e+02  3.936639e+02  1.703557e+03  1.832787e+03 0.0047 0.0 9.0
22  1 1 2   0   0  5.495728e+02 -3.936639e+02 -2.895364e+03  2.973237e+03 0.0 0.0 9.0
#pdf 1 21 2.780166e-01 4.613716e-01 5000.0 1.073649e-01 2.454720e-02
</event>
<event>
4 7 1.0 5000.0 7.905138e-03 7.739137e-02
 1 -1 0 0 101   0  0.000000e+00  0.000000e+00  2.891331e+03  2.891331e+03 0.0 0.0 9.0
21 -1 0 0 103 101  0.000000e+00  0.000000e+00 -2.159443e+03  2.159443e+03 0.0 0.0 9.0
 1  1 1 2 103   0  2.109130e+03  1.182807e+03  1.002106e+03  2.617571e+03 0.0047 0.0 9.0
22  1 1 2   0   0 -2.109130e+03 -1.182807e+03 -2.702183e+02  2.433203e+03 0.0 0.0 9.0
#pdf 1 21 4.448201e-01 3.322220e-01 5000.0 2.879440e-02 7.362756e-02
</event>
<event>
4 7 1.0 5000.0 7.905138e-03 7.739137e-02
21 -1 0 0 103 101  0.000000e+00  0.000000e+00  1.811828e+03  1.811828e+03 0.0 0.0 9.0
 1 -1 0 0 101   0  0.000000e+00  0.000000e+00 -3.538732e+03  3.538732e+03 0.0 0.0 9.0
22  1 1 2   0   0  3.346811e+02 -1.769595e+03 -2.744007e+03  3.282233e+03 0.0 0.0 9.0
 1  1 1 2 103   0 -3.346811e+02  1.769595e+03  1.017103e+03  2.068327e+03 0.0047 0.0 9.0
#pdf 21 1 2.787428e-01 5.444203e-01 5000.0 4.674285e-02 1.500691e-03
</event>
<event>
4 7 1.0 5000.0 7.905138e-03 7.739137e-02
 1 -1 0 0 101   0  0.000000e+00  0.000000e+00  2.369020e+03  2.369020e+03 0.0 0.0 9.0
21 -1 0 0 103 101  0.000000e+00  0.000000e+00 -2.565998e+03  2.565998e+03 0.0 0.0 9.0
22  1 1 2   0   0  6.681502e+02  1.658735e+02  2.270879e+03  2.372937e+03 0.0 0.0 9.0
 1  1 1 2 103   0 -6.681502e+02 -1.658735e+02 -2.467857e+03  2.562081e+03 0.0047 0.0 9.0
#pdf 1 21 3.644646e-01 3.947689e-01 5000.0 5.760528e-02 4.501112e-02
</event>
<event>
4 7 1.0 5000.0 7.905138e-03 7.739137e-02
 1 -1 0 0 101   0  0.000000e+00  0.000000e+00  3.014753e+03  3.014753e+03 0.0 0.0 9.0
21 -1 0 0 103 101  0.000000e+00  0.000000e+00 -2.054197e+03  2.054197e+03 0.0 0.0 9.0
22  1 1 2   0   0  3.343665e+02 -1.582411e+03 -1.445937e+03  2.169461e+03 0.0 0.0 9.0
 1  1 1 2 103   0 -3.343665e+02  1.582411e+03  2.406494e+03  2.899489e+03 0.0047 0.0 9.0
#pdf 1 21 4.638082e-01 3.160302e-01 5000.0 2.396609e-02 8.277781e-02
</event>
<event>
4 7 1.0 5000.0 7.905138e-03 7.739137e-02
21 -1 0 0 103 101  0.000000e+00  0.000000e+00  1.604091e+03  1.604091e+03 0.0 0.0 9.0
 1 -1 0 0 101   0  0.000000e+00  0.000000e+00 -3.953525e+03  3.953525e+03 0.0 0.0 9.0
 1  1 1 2 103   0  1.929525e+03 -1.132106e+03  1.012250e+02  2.239414e+03 0.0047 0.0 9.0
22  1 1 2   0   0 -1.929525e+03  1.132106e+03 -2.450659e+03  3.318202e+03 0.0 0.0 9.0
#pdf 21 1 2.467832e-01 6.082347e-01 5000.0 6.940640e-02 5.622156e-04
</event>
<event>
4 7 1.0 5000.0 7.905138e-03 7.739137e-02
 1 -1 0 0 101   0  0.000000e+00  0.000000e+00  2.780623e+03  2.780623e+03 0.0 0.0 9.0
21 -1 0 0 103 101  0.000000e+00  0.000000e+00 -2.302272e+03  2.302272e+03 0.0 0.0 9.0
 1  1 1 2 103   0 -5.738993e+02 -1.115267e+03  2.446372e+03  2.749167e+03 0.0047 0.0 9.0
22  1 1 2   0   0  5.738993e+02  1.115267e+03 -1.968021e+03  2.333729e+03 0.0 0.0 9.0
#pdf 1 21 4.277882e-01 3.541957e-01 5000.0 3.371504e-02 6.240003e-02
</event>
<event>
4 7 1.0 5000.0 7.905138e-03 7.739137e-02
 1 -1 0 0 101   0  0.000000e+00  0.000000e+00  2.490614e+03  2.490614e+03 0.0 0.0 9.0
21 -1 0 0 103 101  0.000000e+00  0.000000e+00 -2.420938e+03  2.420938e+03 0.0 0.0 9.0
22  1 1 2   0   0 -6.166961e+02 -1.184614e+03  2.095627e+03  2.485011e+03 0.0 0.0 9.0
 1  1 1 2 103   0  6.166961e+02  1.184614e+03 -2.025951e+03  2.426541e+03 0.0047 0.0 9.0
#pdf 1 21 3.831714e-01 3.724519e-01 5000.0 4.957028e-02 5.405785e-02
</event>
<event>
4 7 1.0 5000.0 7.905138e-03 7.739137e-02
21 -1 0 0 103 101  0.000000e+00  0.000000e+00  1.367661e+03  1.367661e+03 0.0 0.0 9.0
 1 -1 0 0 101   0  0.000000e+00  0.000000e+00 -4.546828e+03  4.546828e+03 0.0 0.0 9.0
22  1 1 2   0   0 -2.164274e+01  7.891554e+02 -4.394725e+03  4.465069e+03 0.0 0.0 9.0
 1  1 1 2 103   0  2.164274e+01 -7.891554e+02  1.215558e+03  1.449419e+03 0.0047 0.0 9.0
#pdf 21 1 2.104094e-01 6.995120e-01 5000.0 1.099459e-01 1.092685e-04
</event>
<event>
4 7 1.0 5000.0 7.905138e-03 7.739137e-02
21 -1 0 0 103 101  0.000000e+00  0.000000e+00  2.614987e+03  2.614987e+03 0.0 0.0 9.0
 1 -1 0 0 101   0  0.000000e+00  0.000000e+00 -2.343425e+03  2.343425e+03 0.0 0.0 9.0
 1  1 1 2 103   0 -9.604449e+01 -5.079365e+02  2.560329e+03  2.611993e+03 0.0047 0.0 9.0
22  1 1 2   0   0  9.604449e+01  5.079365e+02 -2.288767e+03  2.346419e+03 0.0 0.0 9.0
#pdf 21 1 4.023057e-01 3.605270e-01 5000.0 1.017994e-02 1.713760e-02
</event>
<event>
4 7 1.0 5000.0 7.905138e-03 7.739137e-02
 1 -1 0 0 101   0  0.000000e+00  0.000000e+00  2.766302e+03  2.766302e+03 0.0 0.0 9.0
21 -1 0 0 103 101  0.000000e+00  0.000000e+00 -2.184216e+03  2.184216e+03 0.0 0.0 9.0
22  1 1 2   0   0  1.984447e+03 -5.700682e+01  1.750624e+03  2.646878e+03 0.0 0.0 9.0
 1  1 1 2 103   0 -1.984447e+03  5.700682e+01 -1.168538e+03  2.303640e+03 0.0047 0.0 9.0
#pdf 1 21 4.255850e-01 3.360332e-01 5000.0 3.439475e-02 7.158409e-02
</event>
<event>
4 7 1.0 5000.0 7.905138e-03 7.739137e-02
 1 -1 0 0 101   0  0.000000e+00  0.000000e+00  2.545401e+03  2.545401e+03 0.0 0.0 9.0
21 -1 0 0 103 101  0.000000e+00  0.000000e+00 -2.456808e+03  2.456808e+03 0.0 0.0 9.0
22  1 1 2   0   0  1.063367e+03 -2.012332e+03 -9.918852e+02  2.482753e+03 0.0 0.0 9.0
 1  1 1 2 103   0 -1.063367e+03  2.012332e+03  1.080478e+03  2.519456e+03 0.0047 0.0 9.0
#pdf 1 21 3.916002e-01 3.779705e-01 5000.0 4.622398e-02 5.171927e-02
</event>
<event>
4 7 1.0 5000.0 7.905138e-03 7.739137e-02
 1 -1 0 0 101   0  0.000000e+00  0.000000e+00  2.610566e+03  2.610566e+03 0.0 0.0 9.0
21 -1 0 0 103 101  0.000000e+00  0.000000e+00 -2.487244e+03  2.487244e+03 0.0 0.0 9.0
22  1 1 2   0   0  2.077508e+02  4.114815e+02  2.568515e+03  2.609549e+03 0.0 0.0 9.0
 1  1 1 2 103   0 -2.077508e+02 -4.114815e+02 -2.445193e+03  2.488261e+03 0.0047 0.0 9.0
#pdf 1 21 4.016256e-01 3.826529e-01 5000.0 4.246467e-02 4.978184e-02
</event>
<event>
4 7 1.0 5000.0 7.905138e-03 7.739137e-02
21 -1 0 0 103 101  0.000000e+00  0.000000e+00  3.382473e+03  3.382473e+03 0.0 0.0 9.0
 1 -1 0 0 101   0  0.000000e+00  0.000000e+00 -1.829800e+03  1.829800e+03 0.0 0.0 9.0
22  1 1 2   0   0 -2.411307e+03  6.104138e+02  8.259697e+02  2.620922e+03 0.0 0.0 9.0
 1  1 1 2 103   0  2.411307e+03 -6.104138e+02  7.267027e+02  2.591351e+03 0.0047 0.0 9.0
#pdf 21 1 5.203804e-01 2.815078e-01 5000.0 2.120203e-03 4.517697e-02
</event>
<event>
4 7 1.0 5000.0 7.905138e-03 7.739137e-02
21 -1 0 0 103 101  0.000000e+00  0.000000e+00  1.754777e+03  1.754777e+03 0.0 0.0 9.0
 1 -1 0 0 101   0  0.000000e+00  0.000000e+00 -3.507597e+03  3.507597e+03 0.0 0.0 9.0
22  1 1 2   0   0  1.487399e+03 -4.455285e+02  1.175770e+03  1.947636e+03 0.0 0.0 9.0
 1  1 1 2 103   0 -1.487399e+03  4.455285e+02 -2.928589e+03  3.314738e+03 0.0047 0.0 9.0
#pdf 21 1 2.699658e-01 5.396303e-01 5000.0 5.206742e-02 1.608366e-03
</event>
<event>
4 7 1.0 5000.0 7.905138e-03 7.739137e-02
21 -1 0 0 103 101  0.000000e+00  0.000000e+00  3.032270e+03  3.032270e+03 0.0 0.0 9.0
 1 -1 0 0 101   0  0.000000e+00  0.000000e+00 -2.008498e+03  2.008498e+03 0.0 0.0 9.0
22  1 1 2   0   0 -6.326252e+02 -2.378178e+03  7.012063e+02  2.558835e+03 0.0 0.0 9.0
 1  1 1 2 103   0  6.326252e+02  2.378178e+03  3.225651e+02  2.481933e+03 0.0047 0.0 9.0
#pdf 21 1 4.665030e-01 3.089997e-01 5000.0 4.436294e-03 3.229191e-02
</event>
<event>
4 7 1.0 5000.0 7.905138e-03 7.739137e-02
 1 -1 0 0 101   0  0.000000e+00  0.000000e+00  2.397029e+03  2.397029e+03 0.0 0.0 9.0
21 -1 0 0 103 101  0.000000e+00  0.000000e+00 -3.037223e+03  3.037223e+03 0.0 0.0 9.0
22  1 1 2   0   0 -1.798120e+03 -1.949697e+02 -2.336403e+03  2.954662e+03 0.0 0.0 9.0
 1  1 1 2 103   0  1.798120e+03  1.949697e+02  1.696208e+03  2.479590e+03 0.0047 0.0 9.0
#pdf 1 21 3.687736e-01 4.672651e-01 5000.0 5.566614e-02 2.315993e-02
</event>
<event>
4 7 1.0 5000.0 7.905138e-03 7.739137e-02
 1 -1 0 0 101   0  0.000000e+00  0.000000e+00  3.325833e+03  3.325833e+03 0.0 0.0 9.0
21 -1 0 0 103 101  0.000000e+00  0.000000e+00 -1.869496e+03  1.869496e+03 0.0 0.0 9.0
22  1 1 2   0   0 -1.277273e+03 -1.295974e+03 -1.047931e+03  2.099794e+03 0.0 0.0 9.0
 1  1 1 2 103   0  1.277273e+03  1.295974e+03  2.504268e+03  3.095535e+03 0.0047 0.0 9.0
#pdf 1 21 5.116666e-01 2.876147e-01 5000.0 1.451049e-02 1.007392e-01
</event>
<event>
4 7 1.0 5000.0 7.905138e-03 7.739137e-02
21 -1 0 0 103 101  0.000000e+00  0.000000e+00  2.595315e+03  2.595315e+03 0.0 0.0 9.0
 1 -1 0 0 101   0  0.000000e+00  0.000000e+00 -2.449442e+03  2.449442e+03 0.0 0.0 9.0
22  1 1 2   0   0 -1.174877e+03 -3.208034e+02  2.281534e+03  2.586242e+03 0.0 0.0 9.0
 1  1 1 2 103   0  1.174877e+03  3.208034e+02 -2.135661e+03  2.458516e+03 0.0047 0.0 9.0
#pdf 21 1 3.992792e-01 3.768373e-01 5000.0 1.057521e-02 1.401463e-02
</event>
<event>
4 7 1.0 5000.0 7.905138e-03 7.739137e-02
21 -1 0 0 103 101  0.000000e+00  0.000000e+00  2.314079e+03  2.314079e+03 0.0 0.0 9.0
 1 -1 0 0 101   0  0.000000e+00  0.000000e+00 -2.683338e+03  2.683338e+03 0.0 0.0 9.0
22  1 1 2   0   0  4.024076e+02  1.129795e+03 -2.374899e+03  2.660548e+03 0.0 0.0 9.0
 1  1 1 2 103   0 -4.024076e+02 -1.129795e+03  2.005639e+03  2.336869e+03 0.0047 0.0 9.0
#pdf 21 1 3.560121e-01 4.128213e-01 5000.0 1.811521e-02 8.908133e-03
</event>
<event>
4 7 1.0 5000.0 7.905138e-03 7.739137e-02
21 -1 0 0 103 101  0.000000e+00  0.000000e+00  2.565020e+03  2.565020e+03 0.0 0.0 9.0
 1 -1 0 0 101   0  0.000000e+00  0.000000e+00 -2.683559e+03  2.683559e+03 0.0 0.0 9.0
 1  1 1 2 103   0 -2.778657e+02  2.607694e+03  1.887784e+01  2.622525e+03 0.0047 0.0 9.0
22  1 1 2   0   0  2.778657e+02 -2.607694e+03 -1.374166e+02  2.626055e+03 0.0 0.0 9.0
#pdf 21 1 3.946185e-01 4.128552e-01 5000.0 1.121299e-02 8.904289e-03
</event>
<event>
4 7 1.0 5000.0 7.905138e-03 7.739137e-02
21 -1 0 0 103 101  0.000000e+00  0.000000e+00  2.332909e+03  2.332909e+03 0.0 0.0 9.0
 1 -1 0 0 101   0  0.000000e+00  0.000000e+00 -2.892612e+03  2.892612e+03 0.0 0.0 9.0
 1  1 1 2 103   0 -2.581161e+03  5.922207e+01  8.690037e+00  2.581855e+03 0.0047 0.0 9.0
22  1 1 2   0   0  2.581161e+03 -5.922207e+01 -5.683931e+02  2.643666e+03 0.0 0.0 9.0
#pdf 21 1 3.589091e-01 4.450173e-01 5000.0 1.748049e-02 5.886420e-03
</event>
<event>
4 7 1.0 5000.0 7.905138e-03 7.739137e-02
 1 -1 0 0 101   0  0.000000e+00  0.000000e+00  2.404555e+03  2.404555e+03 0.0 0.0 9.0
21 -1 0 0 103 101  0.000000e+00  0.000000e+00 -2.671778e+03  2.671778e+03 0.0 0.0 9.0
22  1 1 2   0   0  6.295190e+02 -9.785769e+02 -2.388522e+03  2.656867e+03 0.0 0.0 9.0
 1  1 1 2 103   0 -6.295190e+02  9.785769e+02  2.121299e+03  2.419466e+03 0.0047 0.0 9.0
#pdf 1 21 3.699315e-01 4.110428e-01 5000.0 5.515358e-02 3.914208e-02
</event>
<event>
4 7 1.0 5000.0 7.905138e-03 7.739137e-02
 1 -1 0 0 101   0  0.000000e+00  0.000000e+00  2.575161e+03  2.575161e+03 0.0 0.0 9.0
21 -1 0 0 103 101  0.000000e+00  0.000000e+00 -2.120003e+03  2.120003e+03 0.0 0.0 9.0
22  1 1 2   0   0  1.045525e+03 -1.590051e+02  2.320932e+03  2.550516e+03 0.0 0.0 9.0
 1  1 1 2 103   0 -1.045525e+03  1.590051e+02 -1.865774e+03  2.144649e+03 0.0047 0.0 9.0
#pdf 1 21 3.961787e-01 3.261544e-01 5000.0 4.447883e-02 7.696884e-02
</event>
<event>
4 7 1.0 5000.0 7.905138e-03 7.739137e-02
 1 -1 0 0 101   0  0.000000e+00  0.000000e+00  2.493190e+03  2.493190e+03 0.0 0.0 9.0
21 -1 0 0 103 101  0.000000e+00  0.000000e+00 -2.485363e+03  2.485363e+03 0.0 0.0 9.0
22  1 1 2   0   0 -1.470871e+03  1.957751e+03  4.513861e+02  2.489980e+03 0.0 0.0 9.0
 1  1 1 2 103   0  1.470871e+03 -1.957751e+03 -4.435595e+02  2.488573e+03 0.0047 0.0 9.0
#pdf 1 21 3.835676e-01 3.823635e-01 5000.0 4.940900e-02 4.990019e-02
</event>
<event>
4 7 1.0 5000.0 7.905138e-03 7.739137e-02
 1 -1 0 0 101   0  0.000000e+00  0.000000e+00  1.933008e+03  1.933008e+03 0.0 0.0 9.0
21 -1 0 0 103 101  0.000000e+00  0.000000e+00 -3.253738e+03  3.253738e+03 0.0 0.0 9.0
 1  1 1 2 103   0  1.621106e+03  1.567539e+03 -1.795196e+03  2.882341e+03 0.0047 0.0 9.0
22  1 1 2   0   0 -1.621106e+03 -1.567539e+03  4.744656e+02  2.304404e+03 0.0 0.0 9.0
#pdf 1 21 2.973858e-01 5.005750e-01 5000.0 9.428488e-02 1.638675e-02
</event>
<event>
4 7 1.0 5000.0 7.905138e-03 7.739137e-02
21 -1 0 0 103 101  0.000000e+00  0.000000e+00  1.592337e+03  1.592337e+03 0.0 0.0 9.0
 1 -1 0 0 101   0  0.000000e+00  0.000000e+00 -2.747132e+03  2.747132e+03 0.0 0.0 9.0
 1  1 1 2 103   0 -4.186109e+02 -4.004283e+02 -2.662246e+03  2.724543e+03 0.0047 0.0 9.0
22  1 1 2   0   0  4.186109e+02  4.004283e+02  1.507451e+03  1.614926e+03 0.0 0.0 9.0
#pdf 21 1 2.449749e-01 4.226357e-01 5000.0 7.098260e-02 7.861066e-03
</event>
<event>
4 7 1.0 5000.0 7.905138e-03 7.739137e-02
21 -1 0 0 103 101  0.000000e+00  0.000000e+00  2.625450e+03  2.625450e+03 0.0 0.0 9.0
 1 -1 0 0 101   0  0.000000e+00  0.000000e+00 -2.515010e+03  2.515010e+03 0.0 0.0 9.0
22  1 1 2   0   0 -2.442848e+03 -7.799625e+02 -1.096909e+02  2.566687e+03 0.0 0.0 9.0
 1  1 1 2 103   0  2.442848e+03  7.799625e+02  2.201311e+02  2.573773e+03 0.0047 0.0 9.0
#pdf 21 1 4.039154e-01 3.869246e-01 5000.0 9.975290e-03 1.235341e-02
</event>
<event>
4 7 1.0 5000.0 7.905138e-03 7.739137e-02
21 -1 0 0 103 101  0.000000e+00  0.000000e+00  3.372495e+03  3.372495e+03 0.0 0.0 9.0
 1 -1 0 0 101   0  0.000000e+00  0.000000e+00 -1.919164e+03  1.919164e+03 0.0 0.0 9.0
 1  1 1 2 103   0  1.312470e+03  2.168094e+03  4.960756e+02  2.582499e+03 0.0047 0.0 9.0
22  1 1 2   0   0 -1.312470e+03 -2.168094e+03  9.572553e+02  2.709160e+03 0.0 0.0 9.0
#pdf 21 1 5.188453e-01 2.952560e-01 5000.0 2.166755e-03 3.821254e-02
</event>
<event>
4 7 1.0 5000.0 7.905138e-03 7.739137e-02
21 -1 0 0 103 101  0.000000e+00  0.000000e+00  1.632112e+03  1.632112e+03 0.0 0.0 9.0
 1 -1 0 0 101   0  0.000000e+00  0.000000e+00 -3.968686e+03  3.968686e+03 0.0 0.0 9.0
22  1 1 2   0   0  5.404988e+02 -3.544259e+02  1.540301e+03  1.670414e+03 0.0 0.0 9.0
 1  1 1 2 103   0 -5.404988e+02  3.544259e+02 -3.876874e+03  3.930383e+03 0.0047 0.0 9.0
#pdf 21 1 2.510941e-01 6.105670e-01 5000.0 6.584208e-02 5.411517e-04
</event>
<event>
4 7 1.0 5000.0 7.905138e-03 7.739137e-02
 1 -1 0 0 101   0  0.000000e+00  0.000000e+00  2.924847e+03  2.924847e+03 0.0 0.0 9.0
21 -1 0 0 103 101  0.000000e+00  0.000000e+00 -2.148561e+03  2.148561e+03 0.0 0.0 9.0
22  1 1 2   0   0 -8.773948e+02  1.989420e+03  1.650646e+03  2.729881e+03 0.0 0.0 9.0
 1  1 1 2 103   0  8.773948e+02 -1.989420e+03 -8.743611e+02  2.343528e+03 0.0047 0.0 9.0
#pdf 1 21 4.499764e-01 3.305479e-01 5000.0 2.741922e-02 7.453874e-02
</event>
<event>
4 7 1.0 5000.0 7.905138e-03 7.739137e-02
 1 -1 0 0 101   0  0.000000e+00  0.000000e+00  1.918918e+03  1.918918e+03 0.0 0.0 9.0
21 -1 0 0 103 101  0.000000e+00  0.000000e+00 -2.689586e+03  2.689586e+03 0.0 0.0 9.0
22  1 1 2   0   0  1.493173e+02 -1.530833e+03  1.310477e+03  2.020666e+03 0.0 0.0 9.0
 1  1 1 2 103   0 -1.493173e+02  1.530833e+03 -2.081144e+03  2.587838e+03 0.0047 0.0 9.0
#pdf 1 21 2.952182e-01 4.137824e-01 5000.0 9.569411e-02 3.821279e-02
</event>
<event>
4 7 1.0 5000.0 7.905138e-03 7.739137e-02
 1 -1 0 0 101   0  0.000000e+00  0.000000e+00  1.699436e+03  1.699436e+03 0.0 0.0 9.0
21 -1 0 0 103 101  0.000000e+00  0.000000e+00 -3.604817e+03  3.604817e+03 0.0 0.0 9.0
 1  1 1 2 103   0  1.918740e+03 -5.368257e+02 -2.526188e+03  3.217355e+03 0.0047 0.0 9.0
22  1 1 2   0   0 -1.918740e+03  5.368257e+02  6.208071e+02  2.086898e+03 0.0 0.0 9.0
#pdf 1 21 2.614517e-01 5.545873e-01 5000.0 1.195190e-01 8.756505e-03
</event>
<event>
4 7 1.0 5000.0 7.905138e-03 7.739137e-02
21 -1 0 0 103 101  0.000000e+00  0.000000e+00  2.340828e+03  2.340828e+03 0.0 0.0 9.0
 1 -1 0 0 101   0  0.000000e+00  0.000000e+00 -2.689347e+03  2.689347e+03 0.0 0.0 9.0
22  1 1 2   0   0 -4.729946e+02 -3.817630e+02 -2.614426e+03  2.684156e+03 0.0 0.0 9.0
 1  1 1 2 103   0  4.729946e+02  3.817630e+02  2.265908e+03  2.346019e+03 0.0047 0.0 9.0
#pdf 21 1 3.601274e-01 4.137456e-01 5000.0 1.722160e-02 8.804020e-03
</event>
<event>
4 7 1.0 5000.0 7.905138e-03 7.739137e-02
 1 -1 0 0 101   0  0.000000e+00  0.000000e+00  2.647825e+03  2.647825e+03 0.0 0.0 9.0
21 -1 0 0 103 101  0.000000e+00  0.000000e+00 -1.812903e+03  1.812903e+03 0.0 0.0 9.0
22  1 1 2   0   0 -1.991040e+03  8.886709e+02  6.364440e+02  2.271352e+03 0.0 0.0 9.0
 1  1 1 2 103   0  1.991040e+03 -8.886709e+02  1.984781e+02  2.189377e+03 0.0047 0.0 9.0
#pdf 1 21 4.073578e-01 2.789082e-01 5000.0 4.041816e-02 1.067362e-01
</event>
<event>
4 7 1.0 5000.0 7.905138e-03 7.739137e-02
 1 -1 0 0 101   0  0.000000e+00  0.000000e+00  3.703776e+03  3.703776e+03 0.0 0.0 9.0
21 -1 0 0 103 101  0.000000e+00  0.000000e+00 -1.800496e+03  1.800496e+03 0.0 0.0 9.0
 1  1 1 2 103   0  1.560135e+03  1.421084e+03  2.537816e+03  3.300607e+03 0.0047 0.0 9.0
22  1 1 2   0   0 -1.560135e+03 -1.421084e+03 -6.345357e+02  2.203664e+03 0.0 0.0 9.0
#pdf 1 21 5.698117e-01 2.769993e-01 5000.0 7.214586e-03 1.080855e-01
</event>
<event>
4 7 1.0 5000.0 7.905138e-03 7.739137e-02
21 -1 0 0 103 101  0.000000e+00  0.000000e+00  2.255186e+03  2.255186e+03 0.0 0.0 9.0
 1 -1 0 0 101   0  0.000000e+00  0.000000e+00 -2.727261e+03  2.727261e+03 0.0 0.0 9.0
 1  1 1 2 103   0  7.162198e+02  7.963218e+01 -2.619770e+03  2.717077e+03 0.0047 0.0 9.0
22  1 1 2   0   0 -7.162198e+02 -7.963218e+01  2.147695e+03  2.265371e+03 0.0 0.0 9.0
#pdf 21 1 3.469517e-01 4.195787e-01 5000.0 2.026449e-02 8.174099e-03
</event>
<event>
4 7 1.0 5000.0 7.905138e-03 7.739137e-02
 1 -1 0 0 101   0  0.000000e+00  0.000000e+00  3.107887e+03  3.107887e+03 0.0 0.0 9.0
21 -1 0 0 103 101  0.000000e+00  0.000000e+00 -2.014009e+03  2.014009e+03 0.0 0.0 9.0
 1  1 1 2 103   0  1.331585e+03  7.444825e+02 -1.482803e+03  2.127458e+03 0.0047 0.0 9.0
22  1 1 2   0   0 -1.331585e+03 -7.444825e+02  2.576681e+03  2.994438e+03 0.0 0.0 9.0
#pdf 1 21 4.781364e-01 3.098475e-01 5000.0 2.075035e-02 8.648187e-02
</event>
<event>
4 7 1.0 5000.0 7.905138e-03 7.739137e-02
 1 -1 0 0 101   0  0.000000e+00  0.000000e+00  5.017947e+03  5.017947e+03 0.0 0.0 9.0
21 -1 0 0 103 101  0.000000e+00  0.000000e+00 -1.301169e+03  1.301169e+03 0.0 0.0 9.0
 1  1 1 2 103   0  1.787182e+03  1.053051e+03  1.343885e+01  2.074395e+03 0.0047 0.0 9.0
22  1 1 2   0   0 -1.787182e+03 -1.053051e+03  3.703339e+03  4.244721e+03 0.0 0.0 9.0
#pdf 1 21 7.719919e-01 2.001799e-01 5000.0 1.758689e-04 1.727417e-01
</event>
<event>
4 7 1.0 5000.0 7.905138e-03 7.739137e-02
 1 -1 0 0 101   0  0.000000e+00  0.000000e+00  2.509202e+03  2.509202e+03 0.0 0.0 9.0
21 -1 0 0 103 101  0.000000e+00  0.000000e+00 -2.580566e+03  2.580566e+03 0.0 0.0 9.0
22  1 1 2   0   0 -1.397347e+03 -2.093624e+03 -4.089742e+02  2.550118e+03 0.0 0.0 9.0
 1  1 1 2 103   0  1.397347e+03  2.093624e+03  3.376105e+02  2.539650e+03 0.0047 0.0 9.0
#pdf 1 21 3.860311e-01 3.970101e-01 5000.0 4.841481e-02 4.416703e-02
</event>
<event>
4 7 1.0 5000.0 7.905138e-03 7.739137e-02
21 -1 0 0 103 101  0.000000e+00  0.000000e+00  2.899533e+03  2.899533e+03 0.0 0.0 9.0
 1 -1 0 0 101   0  0.000000e+00  0.000000e+00 -2.173210e+03  2.173210e+03 0.0 0.0 9.0
 1  1 1 2 103   0 -6.797962e+02  1.599275e+03 -1.467185e+03  2.274299e+03 0.0047 0.0 9.0
22  1 1 2   0   0  6.797962e+02 -1.599275e+03  2.193509e+03  2.798444e+03 0.0 0.0 9.0
#pdf 21 1 4.460821e-01 3.343399e-01 5000.0 5.803156e-03 2.365279e-02
</event>
<event>
4 7 1.0 5000.0 7.905138e-03 7.739137e-02
 1 -1 0 0 101   0  0.000000e+00  0.000000e+00  1.522552e+03  1.522552e+03 0.0 0.0 9.0
21 -1 0 0 103 101  0.000000e+00  0.000000e+00 -3.890112e+03  3.890112e+03 0.0 0.0 9.0
22  1 1 2   0   0 -1.796380e+03 -9.034988e+02 -2.708350e+03  3.373196e+03 0.0 0.0 9.0
 1  1 1 2 103   0  1.796380e+03  9.034988e+02  3.407895e+02  2.039468e+03 0.0047 0.0 9.0
#pdf 1 21 2.342387e-01 5.984788e-01 5000.0 1.414980e-01 4.894985e-03
</event>
<event>
4 7 1.0 5000.0 7.905138e-03 7.739137e-02
 1 -1 0 0 101   0  0.000000e+00  0.000000e+00  2.085967e+03  2.085967e+03 0.0 0.0 9.0
21 -1 0 0 103 101  0.000000e+00  0.000000e+00 -3.036980e+03  3.036980e+03 0.0 0.0 9.0
22  1 1 2   0   0  8.663656e+02 -2.216671e+03  3.580173e+02  2.406740e+03 0.0 0.0 9.0
 1  1 1 2 103   0 -8.663656e+02  2.216671e+03 -1.309030e+03  2.716207e+03 0.0047 0.0 9.0
#pdf 1 21 3.209180e-01 4.672276e-01 5000.0 7.993707e-02 2.316858e-02
</event>
<event>
4 7 1.0 5000.0 7.905138e-03 7.739137e-02
21 -1 0 0 103 101  0.000000e+00  0.000000e+00  2.555185e+03  2.555185e+03 0.0 0.0 9.0
 1 -1 0 0 101   0  0.000000e+00  0.000000e+00 -2.456677e+03  2.456677e+03 0.0 0.0 9.0
 1  1 1 2 103   0 -8.146199e+02 -2.137259e+03  1.072088e+03  2.526035e+03 0.0047 0.0 9.0
22  1 1 2   0   0  8.146199e+02  2.137259e+03 -9.735804e+02  2.485828e+03 0.0 0.0 9.0
#pdf 21 1 3.931054e-01 3.779504e-01 5000.0 1.142822e-02 1.382329e-02
</event>
<event>
4 7 1.0 5000.0 7.905138e-03 7.739137e-02
 1 -1 0 0 101   0  0.000000e+00  0.000000e+00  1.890531e+03  1.890531e+03 0.0 0.0 9.0
21 -1 0 0 103 101  0.000000e+00  0.000000e+00 -3.275262e+03  3.275262e+03 0.0 0.0 9.0
 1  1 1 2 103   0  1.849336e+03  5.803593e+00 -2.420515e+03  3.046141e+03 0.0047 0.0 9.0
22  1 1 2   0   0 -1.849336e+03 -5.803593e+00  1.035784e+03  2.119653e+03 0.0 0.0 9.0
#pdf 1 21 2.908509e-01 5.038865e-01 5000.0 9.857165e-02 1.580782e-02
</event>
<event>
4 7 1.0 5000.0 7.905138e-03 7.739137e-02
21 -1 0 0 103 101  0.000000e+00  0.000000e+00  2.709128e+03  2.709128e+03 0.0 0.0 9.0
 1 -1 0 0 101   0  0.000000e+00  0.000000e+00 -2.303270e+03  2.303270e+03 0.0 0.0 9.0
22  1 1 2   0   0 -2.409606e+03 -6.379694e+02  3.667035e+02  2.519460e+03 0.0 0.0 9.0
 1  1 1 2 103   0  2.409606e+03  6.379694e+02  3.915470e+01  2.492938e+03 0.0047 0.0 9.0
#pdf 21 1 4.167889e-01 3.543492e-01 5000.0 8.469740e-03 1.849398e-02
</event>
<event>
4 7 1.0 5000.0 7.905138e-03 7.739137e-02
21 -1 0 0 103 101  0.000000e+00  0.000000e+00  4.097593e+03  4.097593e+03 0.0 0.0 9.0
 1 -1 0 0 101   0  0.000000e+00  0.000000e+00 -1.551873e+03  1.551873e+03 0.0 0.0 9.0
 1  1 1 2 103   0  1.380615e+03  1.249178e+03  3.177944e+03  3.683188e+03 0.0047 0.0 9.0
22  1 1 2   0   0 -1.380615e+03 -1.249178e+03 -6.322243e+02  1.966278e+03 0.0 0.0 9.0
#pdf 21 1 6.303989e-01 2.387497e-01 5000.0 3.889620e-04 7.680805e-02
</event>
<event>
4 7 1.0 5000.0 7.905138e-03 7.739137e-02
21 -1 0 0 103 101  0.000000e+00  0.000000e+00  3.608779e+03  3.608779e+03 0.0 0.0 9.0
 1 -1 0 0 101   0  0.000000e+00  0.000000e+00 -1.633962e+03  1.633962e+03 0.0 0.0 9.0
22  1 1 2   0   0  6.073761e+02  2.095971e+03  2.137282e+03  3.054500e+03 0.0 0.0 9.0
 1  1 1 2 103   0 -6.073761e+02 -2.095971e+03 -1.624649e+02  2.188240e+03 0.0047 0.0 9.0
#pdf 21 1 5.551967e-01 2.513787e-01 5000.0 1.280621e-03 6.561065e-02
</event>
<event>
4 7 1.0 5000.0 7.905138e-03 7.739137e-02
21 -1 0 0 103 101  0.000000e+00  0.000000e+00  3.120819e+03  3.120819e+03 0.0 0.0 9.0
 1 -1 0 0 101   0  0.000000e+00  0.000000e+00 -2.048716e+03  2.048716e+03 0.0 0.0 9.0
22  1 1 2   0   0 -2.314464e+03 -6.521257e+02  1.335522e+03  2.750569e+03 0.0 0.0 9.0
 1  1 1 2 103   0  2.314464e+03  6.521257e+02 -2.634185e+02  2.418967e+03 0.0047 0.0 9.0
#pdf 21 1 4.801260e-01 3.151871e-01 5000.0 3.696039e-03 2.991210e-02
</event>
<event>
4 7 1.0 5000.0 7.905138e-03 7.739137e-02
 1 -1 0 0 101   0  0.000000e+00  0.000000e+00  2.493928e+03  2.493928e+03 0.0 0.0 9.0
21 -1 0 0 103 101  0.000000e+00  0.000000e+00 -2.703672e+03  2.703672e+03 0.0 0.0 9.0
 1  1 1 2 103   0  1.350822e+03 -1.234253e+03 -1.948834e+03  2.673211e+03 0.0047 0.0 9.0
22  1 1 2   0   0 -1.350822e+03  1.234253e+03  1.739091e+03  2.524389e+03 0.0 0.0 9.0
#pdf 1 21 3.836812e-01 4.159495e-01 5000.0 4.936284e-02 3.748931e-02
</event>
<event>
4 7 1.0 5000.0 7.905138e-03 7.739137e-02
 1 -1 0 0 101   0  0.000000e+00  0.000000e+00  2.130482e+03  2.130482e+03 0.0 0.0 9.0
21 -1 0 0 103 101  0.000000e+00  0.000000e+00 -2.710257e+03  2.710257e+03 0.0 0.0 9.0
22  1 1 2   0   0 -5.167339e+02 -1.225578e+03  1.725897e+03  2.178939e+03 0.0 0.0 9.0
 1  1 1 2 103   0  5.167339e+02  1.225578e+03 -2.305672e+03  2.661800e+03 0.0047 0.0 9.0
#pdf 1 21 3.277664e-01 4.169626e-01 5000.0 7.607072e-02 3.715455e-02
</event>
<event>
4 7 1.0 5000.0 7.905138e-03 7.739137e-02
21 -1 0 0 103 101  0.000000e+00  0.000000e+00  3.931845e+03  3.931845e+03 0.0 0.0 9.0
 1 -1 0 0 101   0  0.000000e+00  0.000000e+00 -1.593764e+03  1.593764e+03 0.0 0.0 9.0
 1  1 1 2 103   0  1.327610e+03  1.176980e+03  3.118077e+03  3.587511e+03 0.0047 0.0 9.0
22  1 1 2   0   0 -1.327610e+03 -1.176980e+03 -7.799963e+02  1.938098e+03 0.0 0.0 9.0
#pdf 21 1 6.048992e-01 2.451945e-01 5000.0 5.934790e-04 7.078081e-02
</event>
<event>
4 7 1.0 5000.0 7.905138e-03 7.739137e-02
21 -1 0 0 103 101  0.000000e+00  0.000000e+00  2.472663e+03  2.472663e+03 0.0 0.0 9.0
 1 -1 0 0 101   0  0.000000e+00  0.000000e+00 -2.540922e+03  2.540922e+03 0.0 0.0 9.0
 1  1 1 2 103   0 -9.241882e+02  5.395867e+00 -2.364300e+03  2.538517e+03 0.0047 0.0 9.0
22  1 1 2   0   0  9.241882e+02 -5.395867e+00  2.296042e+03  2.475068e+03 0.0 0.0 9.0
#pdf 21 1 3.804098e-01 3.909110e-01 5000.0 1.340710e-02 1.174798e-02
</event>
<event>
4 7 1.0 5000.0 7.905138e-03 7.739137e-02
21 -1 0 0 103 101  0.000000e+00  0.000000e+00  1.564384e+03  1.564384e+03 0.0 0.0 9.0
 1 -1 0 0 101   0  0.000000e+00  0.000000e+00 -3.295145e+03  3.295145e+03 0.0 0.0 9.0
 1  1 1 2 103   0 -2.146983e+03  4.330094e+02 -2.252048e+02  2.201760e+03 0.0047 0.0 9.0
22  1 1 2   0   0  2.146983e+03 -4.330094e+02 -1.505557e+03  2.657768e+03 0.0 0.0 9.0
#pdf 21 1 2.406744e-01 5.069454e-01 5000.0 7.497991e-02 2.559774e-03
</event>
<event>
4 7 1.0 5000.0 7.905138e-03 7.739137e-02
 1 -1 0 0 101   0  0.000000e+00  0.000000e+00  2.822789e+03  2.822789e+03 0.0 0.0 9.0
21 -1 0 0 103 101  0.000000e+00  0.000000e+00 -2.152588e+03  2.152588e+03 0.0 0.0 9.0
22  1 1 2   0   0 -1.360202e+03 -3.078007e+02 -1.716183e+03  2.211374e+03 0.0 0.0 9.0
 1  1 1 2 103   0  1.360202e+03  3.078007e+02  2.386384e+03  2.764004e+03 0.0047 0.0 9.0
#pdf 1 21 4.342753e-01 3.311674e-01 5000.0 3.178001e-02 7.420058e-02
</event>
<event>
4 7 1.0 5000.0 7.905138e-03 7.739137e-02
21 -1 0 0 103 101  0.000000e+00  0.000000e+00  3.935920e+03  3.935920e+03 0.0 0.0 9.0
 1 -1 0 0 101   0  0.000000e+00  0.000000e+00 -1.529330e+03  1.529330e+03 0.0 0.0 9.0
 1  1 1 2 103   0  1.744687e+02 -1.333728e+03 -1.082041e+03  1.726291e+03 0.0047 0.0 9.0
22  1 1 2   0   0 -1.744687e+02  1.333728e+03  3.488630e+03  3.738958e+03 0.0 0.0 9.0
#pdf 21 1 6.055261e-01 2.352815e-01 5000.0 5.875066e-04 8.019052e-02
</event>
<event>
4 7 1.0 5000.0 7.905138e-03 7.739137e-02
21 -1 0 0 103 101  0.000000e+00  0.000000e+00  1.977587e+03  1.977587e+03 0.0 0.0 9.0
 1 -1 0 0 101   0  0.000000e+00  0.000000e+00 -2.661021e+03  2.661021e+03 0.0 0.0 9.0
 1  1 1 2 103   0  8.388825e+02 -1.623132e+03 -1.744149e+03  2.525932e+03 0.0047 0.0 9.0
22  1 1 2   0   0 -8.388825e+02  1.623132e+03  1.060715e+03  2.112675e+03 0.0 0.0 9.0
#pdf 21 1 3.042442e-01 4.093878e-01 5000.0 3.422395e-02 9.306079e-03
</event>
<event>
4 7 1.0 5000.0 7.905138e-03 7.739137e-02
21 -1 0 0 103 101  0.000000e+00  0.000000e+00  1.928080e+03  1.928080e+03 0.0 0.0 9.0
 1 -1 0 0 101   0  0.000000e+00  0.000000e+00 -3.151231e+03  3.151231e+03 0.0 0.0 9.0
22  1 1 2   0   0 -1.703912e+02 -2.289098e+03 -1.537045e+03  2.762518e+03 0.0 0.0 9.0
 1  1 1 2 103   0  1.703912e+02  2.289098e+03  3.138937e+02  2.316793e+03 0.0047 0.0 9.0
#pdf 21 1 2.966277e-01 4.848048e-01 5000.0 3.757016e-02 3.468627e-03
</event>
<event>
4 7 1.0 5000.0 7.905138e-03 7.739137e-02
 1 -1 0 0 101   0  0.000000e+00  0.000000e+00  1.711828e+03  1.711828e+03 0.0 0.0 9.0
21 -1 0 0 103 101  0.000000e+00  0.000000e+00 -3.003470e+03  3.003470e+03 0.0 0.0 9.0
 1  1 1 2 103   0  5.917526e+02 -2.186506e+03 -5.395525e+02  2.328539e+03 0.0047 0.0 9.0
22  1 1 2   0   0 -5.917526e+02  2.186506e+03 -7.520892e+02  2.386759e+03 0.0 0.0 9.0
#pdf 1 21 2.633582e-01 4.620723e-01 5000.0 1.180753e-01 2.437864e-02
</event>
<event>
4 7 1.0 5000.0 7.905138e-03 7.739137e-02
21 -1 0 0 103 101  0.000000e+00  0.000000e+00  2.213107e+03  2.213107e+03 0.0 0.0 9.0
 1 -1 0 0 101   0  0.000000e+00  0.000000e+00 -2.950419e+03  2.950419e+03 0.0 0.0 9.0
 1  1 1 2 103   0  4.155274e+02 -1.272304e+03 -2.567927e+03  2.895802e+03 0.0047 0.0 9.0
22  1 1 2   0   0 -4.155274e+02  1.272304e+03  1.830615e+03  2.267724e+03 0.0 0.0 9.0
#pdf 21 1 3.404780e-01 4.539107e-01 5000.0 2.193415e-02 5.243060e-03
</event>
<event>
4 7 1.0 5000.0 7.905138e-03 7.739137e-02
21 -1 0 0 103 101  0.000000e+00  0.000000e+00  1.696572e+03  1.696572e+03 0.0 0.0 9.0
 1 -1 0 0 101   0  0.000000e+00  0.000000e+00 -3.703763e+03  3.703763e+03 0.0 0.0 9.0
22  1 1 2   0   0  1.352782e+03  4.232158e+01 -3.276365e+03  3.544908e+03 0.0 0.0 9.0
 1  1 1 2 103   0 -1.352782e+03 -4.232158e+01  1.269173e+03  1.855427e+03 0.0047 0.0 9.0
#pdf 21 1 2.610111e-01 5.698098e-01 5000.0 5.816759e-02 1.027876e-03
</event>
<event>
4 7 1.0 5000.0 7.905138e-03 7.739137e-02
 1 -1 0 0 101   0  0.000000e+00  0.000000e+00  3.319414e+03  3.319414e+03 0.0 0.0 9.0
21 -1 0 0 103 101  0.000000e+00  0.000000e+00 -1.846172e+03  1.846172e+03 0.0 0.0 9.0
 1  1 1 2 103   0 -1.900088e+02  2.407711e+03  1.699122e+02  2.421166e+03 0.0047 0.0 9.0
22  1 1 2   0   0  1.900088e+02 -2.407711e+03  1.303329e+03  2.744420e+03 0.0 0.0 9.0
#pdf 1 21 5.106791e-01 2.840265e-01 5000.0 1.467045e-02 1.031801e-01
</event>
<event>
4 7 1.0 5000.0 7.905138e-03 7.739137e-02
 1 -1 0 0 101   0  0.000000e+00  0.000000e+00  4.335431e+03  4.335431e+03 0.0 0.0 9.0
21 -1 0 0 103 101  0.000000e+00  0.000000e+00 -1.469406e+03  1.469406e+03 0.0 0.0 9.0
 1  1 1 2 103   0 -2.418079e+03  1.280948e+02  2.251807e+03  3.306682e+03 0.0047 0.0 9.0
22  1 1 2   0   0  2.418079e+03 -1.280948e+02  6.142187e+02  2.498155e+03 0.0 0.0 9.0
#pdf 1 21 6.669894e-01 2.260624e-01 5000.0 1.668712e-03 1.486036e-01
</event>
<event>
4 7 1.0 5000.0 7.905138e-03 7.739137e-02
21 -1 0 0 103 101  0.000000e+00  0.000000e+00  1.975176e+03  1.975176e+03 0.0 0.0 9.0
 1 -1 0 0 101   0  0.000000e+00  0.000000e+00 -3.003204e+03  3.003204e+03 0.0 0.0 9.0
 1  1 1 2 103   0 -1.818691e+03  1.601918e+03 -7.603104e+02  2.540050e+03 0.0047 0.0 9.0
22  1 1 2   0   0  1.818691e+03 -1.601918e+03 -2.677174e+02  2.438330e+03 0.0 0.0 9.0
#pdf 21 1 3.038732e-01 4.620313e-01 5000.0 3.437760e-02 4.706638e-03
</event>
<event>
4 7 1.0 5000.0 7.905138e-03 7.739137e-02
21 -1 0 0 103 101  0.000000e+00  0.000000e+00  1.916739e+03  1.916739e+03 0.0 0.0 9.0
 1 -1 0 0 101   0  0.000000e+00  0.000000e+00 -3.337765e+03  3.337765e+03 0.0 0.0 9.0
22  1 1 2   0   0 -1.919821e+03  5.684725e+02 -2.315893e+03  3.061410e+03 0.0 0.0 9.0
 1  1 1 2 103   0  1.919821e+03 -5.684725e+02  8.948667e+02  2.193094e+03 0.0047 0.0 9.0
#pdf 21 1 2.948829e-01 5.135023e-01 5000.0 3.838822e-02 2.336390e-03
</event>
<event>
4 7 1.0 5000.0 7.905138e-03 7.739137e-02
21 -1 0 0 103 101  0.000000e+00  0.000000e+00  2.204324e+03  2.204324e+03 0.0 0.0 9.0
 1 -1 0 0 101   0  0.000000e+00  0.000000e+00 -2.907308e+03  2.907308e+03 0.0 0.0 9.0
22  1 1 2   0   0 -1.494206e+03  1.398590e+03 -1.855733e+03  2.762689e+03 0.0 0.0 9.0
 1  1 1 2 103   0  1.494206e+03 -1.398590e+03  1.152749e+03  2.348943e+03 0.0047 0.0 9.0
#pdf 21 1 3.391268e-01 4.472782e-01 5000.0 2.230025e-02 5.713181e-03
</event>
<event>
4 7 1.0 5000.0 7.905138e-03 7.739137e-02
 1 -1 0 0 101   0  0.000000e+00  0.000000e+00  2.442832e+03  2.442832e+03 0.0 0.0 9.0
21 -1 0 0 103 101  0.000000e+00  0.000000e+00 -2.502934e+03  2.502934e+03 0.0 0.0 9.0
 1  1 1 2 103   0  4.292789e+02 -1.165421e+03 -2.168376e+03  2.498868e+03 0.0047 0.0 9.0
22  1 1 2   0   0 -4.292789e+02  1.165421e+03  2.108275e+03  2.446898e+03 0.0 0.0 9.0
#pdf 1 21 3.758204e-01 3.850667e-01 5000.0 5.262389e-02 4.880225e-02
</event>
<event>
4 7 1.0 5000.0 7.905138e-03 7.739137e-02
21 -1 0 0 103 101  0.000000e+00  0.000000e+00  2.103604e+03  2.103604e+03 0.0 0.0 9.0
 1 -1 0 0 101   0  0.000000e+00  0.000000e+00 -2.937548e+03  2.937548e+03 0.0 0.0 9.0
 1  1 1 2 103   0  1.092578e+03 -1.824465e+03 -1.722217e+03  2.736499e+03 0.0047 0.0 9.0
22  1 1 2   0   0 -1.092578e+03  1.824465e+03  8.882723e+02  2.304653e+03 0.0 0.0 9.0
#pdf 21 1 3.236314e-01 4.519305e-01 5000.0 2.696723e-02 5.380981e-03
</event>
<event>
4 7 1.0 5000.0 7.905138e-03 7.739137e-02
21 -1 0 0 103 101  0.000000e+00  0.000000e+00  3.405266e+03  3.405266e+03 0.0 0.0 9.0
 1 -1 0 0 101   0  0.000000e+00  0.000000e+00 -1.732237e+03  1.732237e+03 0.0 0.0 9.0
22  1 1 2   0   0 -2.042560e+03 -1.859799e+02 -5.392816e+02  2.120723e+03 0.0 0.0 9.0
 1  1 1 2 103   0  2.042560e+03  1.859799e+02  2.212311e+03  3.016780e+03 0.0047 0.0 9.0
#pdf 21 1 5.238871e-01 2.664980e-01 5000.0 2.017738e-03 5.434026e-02
</event>
<event>
4 7 1.0 5000.0 7.905138e-03 7.739137e-02
21 -1 0 0 103 101  0.000000e+00  0.000000e+00  2.397271e+03  2.397271e+03 0.0 0.0 9.0
 1 -1 0 0 101   0  0.000000e+00  0.000000e+00 -3.147375e+03  3.147375e+03 0.0 0.0 9.0
 1  1 1 2 103   0  1.624470e+03 -7.986341e+02 -2.460230e+03  3.054415e+03 0.0047 0.0 9.0
22  1 1 2   0   0 -1.624470e+03  7.986341e+02  1.710126e+03  2.490231e+03 0.0 0.0 9.0
#pdf 21 1 3.688109e-01 4.842115e-01 5000.0 1.546363e-02 3.496659e-03
</event>
<event>
4 7 1.0 5000.0 7.905138e-03 7.739137e-02
21 -1 0 0 103 101  0.000000e+00  0.000000e+00  1.469283e+03  1.469283e+03 0.0 0.0 9.0
 1 -1 0 0 101   0  0.000000e+00  0.000000e+00 -4.295870e+03  4.295870e+03 0.0 0.0 9.0
 1  1 1 2 103   0 -1.475606e+03 -5.296697e+02 -3.665727e+03  3.986919e+03 0.0047 0.0 9.0
22  1 1 2   0   0  1.475606e+03  5.296697e+02  8.391401e+02  1.778235e+03 0.0 0.0 9.0
#pdf 21 1 2.260435e-01 6.609031e-01 5000.0 9.003901e-02 2.280543e-04
</event>
<event>
4 7 1.0 5000.0 7.905138e-03 7.739137e-02
21 -1 0 0 103 101  0.000000e+00  0.000000e+00  2.600545e+03  2.600545e+03 0.0 0.0 9.0
 1 -1 0 0 101   0  0.000000e+00  0.000000e+00 -2.329730e+03  2.329730e+03 0.0 0.0 9.0
22  1 1 2   0   0  1.016780e+03 -1.338907e+03  1.935917e+03  2.564038e+03 0.0 0.0 9.0
 1  1 1 2 103   0 -1.016780e+03  1.338907e+03 -1.665103e+03  2.366238e+03 0.0047 0.0 9.0
#pdf 21 1 4.000838e-01 3.584200e-01 5000.0 1.046874e-02 1.758565e-02
</event>
<event>
4 7 1.0 5000.0 7.905138e-03 7.739137e-02
21 -1 0 0 103 101  0.000000e+00  0.000000e+00  2.554135e+03  2.554135e+03 0.0 0.0 9.0
 1 -1 0 0 101   0  0.000000e+00  0.000000e+00 -2.487124e+03  2.487124e+03 0.0 0.0 9.0
22  1 1 2   0   0  2.110771e+03 -8.940513e+02 -1.014332e+03  2.506701e+03 0.0 0.0 9.0
 1  1 1 2 103   0 -2.110771e+03  8.940513e+02  1.081343e+03  2.534558e+03 0.0047 0.0 9.0
#pdf 21 1 3.929439e-01 3.826344e-01 5000.0 1.145144e-02 1.303895e-02
</event>
<event>
4 7 1.0 5000.0 7.905138e-03 7.739137e-02
21 -1 0 0 103 101  0.000000e+00  0.000000e+00  3.174166e+03  3.174166e+03 0.0 0.0 9.0
 1 -1 0 0 101   0  0.000000e+00  0.000000e+00 -2.054993e+03  2.054993e+03 0.0 0.0 9.0
22  1 1 2   0   0 -5.608856e+02  1.893512e+03  2.217544e+03  2.969425e+03 0.0 0.0 9.0
 1  1 1 2 103   0  5.608856e+02 -1.893512e+03 -1.098372e+03  2.259735e+03 0.0047 0.0 9.0
#pdf 21 1 4.883332e-01 3.161528e-01 5000.0 3.306466e-03 2.955732e-02
</event>
<event>
4 7 1.0 5000.0 7.905138e-03 7.739137e-02
 1 -1 0 0 101   0  0.000000e+00  0.000000e+00  2.419415e+03  2.419415e+03 0.0 0.0 9.0
21 -1 0 0 103 101  0.000000e+00  0.000000e+00 -2.535675e+03  2.535675e+03 0.0 0.0 9.0
22  1 1 2   0   0  1.878381e+03  1.580453e+03  2.716656e+02  2.469808e+03 0.0 0.0 9.0
 1  1 1 2 103   0 -1.878381e+03 -1.580453e+03 -3.879255e+02  2.485283e+03 0.0047 0.0 9.0
#pdf 1 21 3.722178e-01 3.901039e-01 5000.0 5.415834e-02 4.680463e-02
</event>
<event>
4 7 1.0 5000.0 7.905138e-03 7.739137e-02
 1 -1 0 0 101   0  0.000000e+00  0.000000e+00  2.340110e+03  2.340110e+03 0.0 0.0 9.0
21 -1 0 0 103 101  0.000000e+00  0.000000e+00 -2.792004e+03  2.792004e+03 0.0 0.0 9.0
 1  1 1 2 103   0 -1.989400e+03 -7.914818e+02  1.175722e+03  2.442637e+03 0.0047 0.0 9.0
22  1 1 2   0   0  1.989400e+03  7.914818e+02 -1.627616e+03  2.689477e+03 0.0 0.0 9.0
#pdf 1 21 3.600170e-01 4.295391e-01 5000.0 5.964685e-02 3.318334e-02
</event>
<event>
4 7 1.0 5000.0 7.905138e-03 7.739137e-02
21 -1 0 0 103 101  0.000000e+00  0.000000e+00  2.863075e+03  2.863075e+03 0.0 0.0 9.0
 1 -1 0 0 101   0  0.000000e+00  0.000000e+00 -2.074518e+03  2.074518e+03 0.0 0.0 9.0
22  1 1 2   0   0  7.370735e+01 -9.513730e+02  2.665970e+03  2.831596e+03 0.0 0.0 9.0
 1  1 1 2 103   0 -7.370735e+01  9.513730e+02 -1.877413e+03  2.105997e+03 0.0047 0.0 9.0
#pdf 21 1 4.404731e-01 3.191567e-01 5000.0 6.251928e-03 2.848580e-02
</event>
<event>
4 7 1.0 5000.0 7.905138e-03 7.739137e-02
21 -1 0 0 103 101  0.000000e+00  0.000000e+00  2.724715e+03  2.724715e+03 0.0 0.0 9.0
 1 -1 0 0 101   0  0.000000e+00  0.000000e+00 -2.286919e+03  2.286919e+03 0.0 0.0 9.0
22  1 1 2   0   0  1.144367e+03 -1.825186e+03 -1.047022e+03  2.395232e+03 0.0 0.0 9.0
 1  1 1 2 103   0 -1.144367e+03  1.825186e+03  1.484818e+03  2.616403e+03 0.0047 0.0 9.0
#pdf 21 1 4.191870e-01 3.518337e-01 5000.0 8.215017e-03 1.908242e-02
</event>
<event>
4 7 1.0 5000.0 7.905138e-03 7.739137e-02
21 -1 0 0 103 101  0.000000e+00  0.000000e+00  1.847701e+03  1.847701e+03 0.0 0.0 9.0
 1 -1 0 0 101   0  0.000000e+00  0.000000e+00 -3.343549e+03  3.343549e+03 0.0 0.0 9.0
 1  1 1 2 103   0  1.402497e+03  1.408170e+03  8.108159e+02  2.146478e+03 0.0047 0.0 9.0
22  1 1 2   0   0 -1.402497e+03 -1.408170e+03 -2.306664e+03  3.044773e+03 0.0 0.0 9.0
#pdf 21 1 2.842617e-01 5.143922e-01 5000.0 4.367555e-02 2.307416e-03
</event>
<event>
4 7 1.0 5000.0 7.905138e-03 7.739137e-02
21 -1 0 0 103 101  0.000000e+00  0.000000e+00  2.559248e+03  2.559248e+03 0.0 0.0 9.0
 1 -1 0 0 101   0  0.000000e+00  0.000000e+00 -2.593813e+03  2.593813e+03 0.0 0.0 9.0
22  1 1 2   0   0  2.310341e+03  9.463726e+02  6.190616e+02  2.572262e+03 0.0 0.0 9.0
 1  1 1 2 103   0 -2.310341e+03 -9.463726e+02 -6.536261e+02  2.580799e+03 0.0047 0.0 9.0
#pdf 21 1 3.937305e-01 3.990481e-01 5000.0 1.133880e-02 1.060599e-02
</event>
<event>
4 7 1.0 5000.0 7.905138e-03 7.739137e-02
 1 -1 0 0 101   0  0.000000e+00  0.000000e+00  1.959697e+03  1.959697e+03 0.0 0.0 9.0
21 -1 0 0 103 101  0.000000e+00  0.000000e+00 -3.181961e+03  3.181961e+03 0.0 0.0 9.0
 1  1 1 2 103   0 -7.485180e+02 -1.872171e+03 -2.127829e+03  2.931375e+03 0.0047 0.0 9.0
22  1 1 2   0   0  7.485180e+02  1.872171e+03  9.055647e+02  2.210283e+03 0.0 0.0 9.0
#pdf 1 21 3.014918e-01 4.895324e-01 5000.0 9.165763e-02 1.843550e-02
</event>
<event>
4 7 1.0 5000.0 7.905138e-03 7.739137e-02
21 -1 0 0 103 101  0.000000e+00  0.000000e+00  2.996784e+03  2.996784e+03 0.0 0.0 9.0
 1 -1 0 0 101   0  0.000000e+00  0.000000e+00 -2.056883e+03  2.056883e+03 0.0 0.0 9.0
 1  1 1 2 103   0  1.055247e+03  5.632536e+02  2.684182e+03  2.938645e+03 0.0047 0.0 9.0
22  1 1 2   0   0 -1.055247e+03 -5.632536e+02 -1.744281e+03  2.115022e+03 0.0 0.0 9.0
#pdf 21 1 4.610437e-01 3.164435e-01 5000.0 4.768787e-03 2.945150e-02
</event>
<event>
4 7 1.0 5000.0 7.905138e-03 7.739137e-02
 1 -1 0 0 101   0  0.000000e+00  0.000000e+00  2.341735e+03  2.341735e+03 0.0 0.0 9.0
21 -1 0 0 103 101  0.000000e+00  0.000000e+00 -2.712322e+03  2.712322e+03 0.0 0.0 9.0
 1  1 1 2 103   0 -2.377645e+02  4.702115e+02 -2.656475e+03  2.708227e+03 0.0047 0.0 9.0
22  1 1 2   0   0  2.377645e+02 -4.702115e+02  2.285889e+03  2.345830e+03 0.0 0.0 9.0
#pdf 1 21 3.602669e-01 4.172802e-01 5000.0 5.953087e-02 3.705006e-02
</event>
<event>
4 7 1.0 5000.0 7.905138e-03 7.739137e-02
 1 -1 0 0 101   0  0.000000e+00  0.000000e+00  2.524198e+03  2.524198e+03 0.0 0.0 9.0
21 -1 0 0 103 101  0.000000e+00  0.000000e+00 -2.064945e+03  2.064945e+03 0.0 0.0 9.0
 1  1 1 2 103   0 -2.046332e+03  1.011904e+03  2.598933e+02  2.297600e+03 0.0047 0.0 9.0
22  1 1 2   0   0  2.046332e+03 -1.011904e+03  1.993597e+02  2.291543e+03 0.0 0.0 9.0
#pdf 1 21 3.883381e-01 3.176838e-01 5000.0 4.749739e-02 8.180850e-02
</event>
<event>
4 7 1.0 5000.0 7.905138e-03 7.739137e-02
21 -1 0 0 103 101  0.000000e+00  0.000000e+00  2.705210e+03  2.705210e+03 0.0 0.0 9.0
 1 -1 0 0 101   0  0.000000e+00  0.000000e+00 -2.319389e+03  2.319389e+03 0.0 0.0 9.0
 1  1 1 2 103   0 -9.795211e+02 -2.304992e+03  1.482051e+02  2.508867e+03 0.0047 0.0 9.0
22  1 1 2   0   0  9.795211e+02  2.304992e+03  2.376162e+02  2.515732e+03 0.0 0.0 9.0
#pdf 21 1 4.161862e-01 3.568291e-01 5000.0 8.534938e-03 1.793321e-02
</event>
<event>
4 7 1.0 5000.0 7.905138e-03 7.739137e-02
 1 -1 0 0 101   0  0.000000e+00  0.000000e+00  2.774528e+03  2.774528e+03 0.0 0.0 9.0
21 -1 0 0 103 101  0.000000e+00  0.000000e+00 -2.254823e+03  2.254823e+03 0.0 0.0 9.0
22  1 1 2   0   0 -2.478225e+03 -1.472821e+02  5.660930e+02  2.546321e+03 0.0 0.0 9.0
 1  1 1 2 103   0  2.478225e+03  1.472821e+02 -4.638849e+01  2.483031e+03 0.0047 0.0 9.0
#pdf 1 21 4.268505e-01 3.468959e-01 5000.0 3.400299e-02 6.598682e-02
</event>
<event>
4 7 1.0 5000.0 7.905138e-03 7.739137e-02
 1 -1 0 0 101   0  0.000000e+00  0.000000e+00  1.650527e+03  1.650527e+03 0.0 0.0 9.0
21 -1 0 0 103 101  0.000000e+00  0.000000e+00 -3.721865e+03  3.721865e+03 0.0 0.0 9.0
 1  1 1 2 103   0 -1.110510e+03 -1.547362e+02 -3.431283e+03  3.609830e+03 0.0047 0.0 9.0
22  1 1 2   0   0  1.110510e+03  1.547362e+02  1.359945e+03  1.762562e+03 0.0 0.0 9.0
#pdf 1 21 2.539273e-01 5.725946e-01 5000.0 1.253434e-01 6.956258e-03
</event>
<event>
4 7 1.0 5000.0 7.905138e-03 7.739137e-02
21 -1 0 0 103 101  0.000000e+00  0.000000e+00  1.540525e+03  1.540525e+03 0.0 0.0 9.0
 1 -1 0 0 101   0  0.000000e+00  0.000000e+00 -4.037938e+03  4.037938e+03 0.0 0.0 9.0
 1  1 1 2 103   0  6.692710e+02 -1.391824e+02 -3.931128e+03  3.990120e+03 0.0047 0.0 9.0
22  1 1 2   0   0 -6.692710e+02  1.391824e+02  1.433715e+03  1.588343e+03 0.0 0.0 9.0
#pdf 21 1 2.370039e-01 6.212212e-01 5000.0 7.849479e-02 4.541172e-04
</event>
<event>
4 7 1.0 5000.0 7.905138e-03 7.739137e-02
 1 -1 0 0 101   0  0.000000e+00  0.000000e+00  1.676034e+03  1.676034e+03 0.0 0.0 9.0
21 -1 0 0 103 101  0.000000e+00  0.000000e+00 -3.957666e+03  3.957666e+03 0.0 0.0 9.0
 1  1 1 2 103   0  1.488658e+03 -2.048024e+03 -6.247041e+02  2.607826e+03 0.0047 0.0 9.0
22  1 1 2   0   0 -1.488658e+03  2.048024e+03 -1.656927e+03  3.025874e+03 0.0 0.0 9.0
#pdf 1 21 2.578515e-01 6.088716e-01 5000.0 1.222811e-01 4.219305e-03
</event>
<event>
4 7 1.0 5000.0 7.905138e-03 7.739137e-02
 1 -1 0 0 101   0  0.000000e+00  0.000000e+00  3.415990e+03  3.415990e+03 0.0 0.0 9.0
21 -1 0 0 103 101  0.000000e+00  0.000000e+00 -1.865449e+03  1.865449e+03 0.0 0.0 9.0
22  1 1 2   0   0 -7.481436e+02  1.042688e+03  3.049285e+03  3.308332e+03 0.0 0.0 9.0
 1  1 1 2 103   0  7.481436e+02 -1.042688e+03 -1.498745e+03  1.973108e+03 0.0047 0.0 9.0
#pdf 1 21 5.255369e-01 2.869922e-01 5000.0 1.240374e-02 1.011597e-01
</event>
<event>
4 7 1.0 5000.0 7.905138e-03 7.739137e-02
21 -1 0 0 103 101  0.000000e+00  0.000000e+00  2.503498e+03  2.503498e+03 0.0 0.0 9.0
 1 -1 0 0 101   0  0.000000e+00  0.000000e+00 -2.571130e+03  2.571130e+03 0.0 0.0 9.0
22  1 1 2   0   0  7.126610e+02  1.994114e+03  1.363607e+03  2.518690e+03 0.0 0.0 9.0
 1  1 1 2 103   0 -7.126610e+02 -1.994114e+03 -1.431238e+03  2.555938e+03 0.0047 0.0 9.0
#pdf 21 1 3.851536e-01 3.955584e-01 5000.0 1.263233e-02 1.108136e-02
</event>
<event>
4 7 1.0 5000.0 7.905138e-03 7.739137e-02
21 -1 0 0 103 101  0.000000e+00  0.000000e+00  1.612081e+03  1.612081e+03 0.0 0.0 9.0
 1 -1 0 0 101   0  0.000000e+00  0.000000e+00 -3.921204e+03  3.921204e+03 0.0 0.0 9.0
 1  1 1 2 103   0 -1.335322e+03 -5.273130e+02 -3.425799e+03  3.714464e+03 0.0047 0.0 9.0
22  1 1 2   0   0  1.335322e+03  5.273130e+02  1.116676e+03  1.818820e+03 0.0 0.0 9.0
#pdf 21 1 2.480124e-01 6.032621e-01 5000.0 6.837983e-02 6.093004e-04
</event>
<event>
4 7 1.0 5000.0 7.905138e-03 7.739137e-02
21 -1 0 0 103 101  0.000000e+00  0.000000e+00  2.697511e+03  2.697511e+03 0.0 0.0 9.0
 1 -1 0 0 101   0  0.000000e+00  0.000000e+00 -2.376618e+03  2.376618e+03 0.0 0.0 9.0
22  1 1 2   0   0  2.059964e+03 -4.671825e+02 -1.238506e+03  2.448593e+03 0.0 0.0 9.0
 1  1 1 2 103   0 -2.059964e+03  4.671825e+02  1.559399e+03  2.625536e+03 0.0047 0.0 9.0
#pdf 21 1 4.150017e-01 3.656335e-01 5000.0 8.664497e-03 1.609347e-02
</event>
<event>
4 7 1.0 5000.0 7.905138e-03 7.739137e-02
21 -1 0 0 103 101  0.000000e+00  0.000000e+00  2.511436e+03  2.511436e+03 0.0 0.0 9.0
 1 -1 0 0 101   0  0.000000e+00  0.000000e+00 -2.511303e+03  2.511303e+03 0.0 0.0 9.0
22  1 1 2   0   0  2.287149e+03  9.907192e+02  3.073134e+02  2.511377e+03 0.0 0.0 9.0
 1  1 1 2 103   0 -2.287149e+03 -9.907192e+02 -3.071809e+02  2.511361e+03 0.0047 0.0 9.0
#pdf 21 1 3.863747e-01 3.863543e-01 5000.0 1.243938e-02 1.244258e-02
</event>
<event>
4 7 1.0 5000.0 7.905138e-03 7.739137e-02
21 -1 0 0 103 101  0.000000e+00  0.000000e+00  2.927058e+03  2.927058e+03 0.0 0.0 9.0
 1 -1 0 0 101   0  0.000000e+00  0.000000e+00 -2.111938e+03  2.111938e+03 0.0 0.0 9.0
 1  1 1 2 103   0 -2.105522e+01 -1.671511e+03  2.272604e+03  2.821192e+03 0.0047 0.0 9.0
22  1 1 2   0   0  2.105522e+01  1.671511e+03 -1.457485e+03  2.217804e+03 0.0 0.0 9.0
#pdf 21 1 4.503165e-01 3.249136e-01 5000.0 5.494819e-03 2.654770e-02
</event>
<event>
4 7 1.0 5000.0 7.905138e-03 7.739137e-02
21 -1 0 0 103 101  0.000000e+00  0.000000e+00  2.297969e+03  2.297969e+03 0.0 0.0 9.0
 1 -1 0 0 101   0  0.000000e+00  0.000000e+00 -2.242559e+03  2.242559e+03 0.0 0.0 9.0
22  1 1 2   0   0  6.845988e+02 -2.976352e+02  2.171709e+03  2.296428e+03 0.0 0.0 9.0
 1  1 1 2 103   0 -6.845988e+02  2.976352e+02 -2.116299e+03  2.244100e+03 0.0047 0.0 9.0
#pdf 21 1 3.535337e-01 3.450090e-01 5000.0 1.868339e-02 2.075203e-02
</event>
<event>
4 7 1.0 5000.0 7.905138e-03 7.739137e-02
21 -1 0 0 103 101  0.000000e+00  0.000000e+00  2.152915e+03  2.152915e+03 0.0 0.0 9.0
 1 -1 0 0 101   0  0.000000e+00  0.000000e+00 -2.933114e+03  2.933114e+03 0.0 0.0 9.0
 1  1 1 2 103   0 -3.621403e+02  2.388319e+03  3.106759e+02  2.435515e+03 0.0047 0.0 9.0
22  1 1 2   0   0  3.621403e+02 -2.388319e+03 -1.090875e+03  2.650514e+03 0.0 0.0 9.0
#pdf 21 1 3.312177e-01 4.512483e-01 5000.0 2.457691e-02 5.428959e-03
</event>
<event>
4 7 1.0 5000.0 7.905138e-03 7.739137e-02
 1 -1 0 0 101   0  0.000000e+00  0.000000e+00  2.836154e+03  2.836154e+03 0.0 0.0 9.0
21 -1 0 0 103 101  0.000000e+00  0.000000e+00 -1.766057e+03  1.766057e+03 0.0 0.0 9.0
 1  1 1 2 103   0  9.272706e+02 -1.816188e+03 -4.131311e+02  2.080636e+03 0.0047 0.0 9.0
22  1 1 2   0   0 -9.272706e+02  1.816188e+03  1.483228e+03  2.521574e+03 0.0 0.0 9.0
#pdf 1 21 4.363314e-01 2.717010e-01 5000.0 3.118468e-02 1.118945e-01
</event>
<event>
4 7 1.0 5000.0 7.905138e-03 7.739137e-02
 1 -1 0 0 101   0  0.000000e+00  0.000000e+00  2.291679e+03  2.291679e+03 0.0 0.0 9.0
21 -1 0 0 103 101  0.000000e+00  0.000000e+00 -2.429503e+03  2.429503e+03 0.0 0.0 9.0
22  1 1 2   0   0  1.538253e+03  7.762962e+02 -1.681673e+03  2.407672e+03 0.0 0.0 9.0
 1  1 1 2 103   0 -1.538253e+03 -7.762962e+02  1.543849e+03  2.313510e+03 0.0047 0.0 9.0
#pdf 1 21 3.525660e-01 3.737697e-01 5000.0 6.318934e-02 5.349458e-02
</event>
<event>
4 7 1.0 5000.0 7.905138e-03 7.739137e-02
21 -1 0 0 103 101  0.000000e+00  0.000000e+00  1.905737e+03  1.905737e+03 0.0 0.0 9.0
 1 -1 0 0 101   0  0.000000e+00  0.000000e+00 -3.250835e+03  3.250835e+03 0.0 0.0 9.0
22  1 1 2   0   0  1.207938e+03  1.805524e+02  1.573989e+03  1.992274e+03 0.0 0.0 9.0
 1  1 1 2 103   0 -1.207938e+03 -1.805524e+02 -2.919087e+03  3.164298e+03 0.0047 0.0 9.0
#pdf 21 1 2.931903e-01 5.001285e-01 5000.0 3.919157e-02 2.813337e-03
</event>
<event>
4 7 1.0 5000.0 7.905138e-03 7.739137e-02
21 -1 0 0 103 101  0.000000e+00  0.000000e+00  2.235957e+03  2.235957e+03 0.0 0.0 9.0
 1 -1 0 0 101   0  0.000000e+00  0.000000e+00 -2.798404e+03  2.798404e+03 0.0 0.0 9.0
22  1 1 2   0   0  1.442168e+03  4.785461e+02  1.718317e+03  2.293789e+03 0.0 0.0 9.0
 1  1 1 2 103   0 -1.442168e+03 -4.785461e+02 -2.280764e+03  2.740572e+03 0.0047 0.0 9.0
#pdf 21 1 3.439934e-01 4.305237e-01 5000.0 2.101130e-02 7.103266e-03
</event>
<event>
4 7 1.0 5000.0 7.905138e-03 7.739137e-02
 1 -1 0 0 101   0  0.000000e+00  0.000000e+00  2.767412e+03  2.767412e+03 0.0 0.0 9.0
21 -1 0 0 103 101  0.000000e+00  0.000000e+00 -2.242482e+03  2.242482e+03 0.0 0.0 9.0
 1  1 1 2 103   0 -5.264920e+02  1.493679e+03 -1.671094e+03  2.302352e+03 0.0047 0.0 9.0
22  1 1 2   0   0  5.264920e+02 -1.493679e+03  2.196023e+03  2.707542e+03 0.0 0.0 9.0
#pdf 1 21 4.257557e-01 3.449973e-01 5000.0 3.434172e-02 6.694201e-02
</event>
<event>
4 7 1.0 5000.0 7.905138e-03 7.739137e-02
21 -1 0 0 103 101  0.000000e+00  0.000000e+00  3.299203e+03  3.299203e+03 0.0 0.0 9.0
 1 -1 0 0 101   0  0.000000e+00  0.000000e+00 -1.824004e+03  1.824004e+03 0.0 0.0 9.0
 1  1 1 2 103   0  3.764900e+02 -7.425385e+02  3.147173e+03  3.255427e+03 0.0047 0.0 9.0
22  1 1 2   0   0 -3.764900e+02  7.425385e+02 -1.671974e+03  1.867781e+03 0.0 0.0 9.0
#pdf 21 1 5.075697e-01 2.806161e-01 5000.0 2.537700e-03 4.567666e-02
</event>
<event>
4 7 1.0 5000.0 7.905138e-03 7.739137e-02
 1 -1 0 0 101   0  0.000000e+00  0.000000e+00  2.760251e+03  2.760251e+03 0.0 0.0 9.0
21 -1 0 0 103 101  0.000000e+00  0.000000e+00 -2.292385e+03  2.292385e+03 0.0 0.0 9.0
22  1 1 2   0   0  1.710349e+03 -1.711399e+03  9.249267e+02  2.590303e+03 0.0 0.0 9.0
 1  1 1 2 103   0 -1.710349e+03  1.711399e+03 -4.570606e+02  2.462333e+03 0.0047 0.0 9.0
#pdf 1 21 4.246541e-01 3.526746e-01 5000.0 3.468510e-02 6.313650e-02
</event>
<event>
4 7 1.0 5000.0 7.905138e-03 7.739137e-02
21 -1 0 0 103 101  0.000000e+00  0.000000e+00  2.256963e+03  2.256963e+03 0.0 0.0 9.0
 1 -1 0 0 101   0  0.000000e+00  0.000000e+00 -2.790199e+03  2.790199e+03 0.0 0.0 9.0
 1  1 1 2 103   0  1.022983e+03  6.889986e+02  1.931125e+03  2.291388e+03 0.0047 0.0 9.0
22  1 1 2   0   0 -1.022983e+03 -6.889986e+02 -2.464362e+03  2.755774e+03 0.0 0.0 9.0
#pdf 21 1 3.472251e-01 4.292615e-01 5000.0 2.019673e-02 7.219014e-03
</event>
<event>
4 7 1.0 5000.0 7.905138e-03 7.739137e-02
 1 -1 0 0 101   0  0.000000e+00  0.000000e+00  3.242536e+03  3.242536e+03 0.0 0.0 9.0
21 -1 0 0 103 101  0.000000e+00  0.000000e+00 -1.939753e+03  1.939753e+03 0.0 0.0 9.0
 1  1 1 2 103   0 -8.576344e+02 -4.060858e+01 -1.783174e+03  1.979115e+03 0.0047 0.0 9.0
22  1 1 2   0   0  8.576344e+02  4.060858e+01  3.085957e+03  3.203173e+03 0.0 0.0 9.0
#pdf 1 21 4.988516e-01 2.984235e-01 5000.0 1.669462e-02 9.361446e-02
</event>
<event>
4 7 1.0 5000.0 7.905138e-03 7.739137e-02
21 -1 0 0 103 101  0.000000e+00  0.000000e+00  2.188300e+03  2.188300e+03 0.0 0.0 9.0
 1 -1 0 0 101   0  0.000000e+00  0.000000e+00 -2.882134e+03  2.882134e+03 0.0 0.0 9.0
22  1 1 2   0   0 -3.148478e+02  8.352002e+02  2.022773e+03  2.210950e+03 0.0 0.0 9.0
 1  1 1 2 103   0  3.148478e+02 -8.352002e+02 -2.716608e+03  2.859484e+03 0.0047 0.0 9.0
#pdf 21 1 3.366615e-01 4.434053e-01 5000.0 2.298607e-02 6.015119e-03
</event>
<event>
4 7 1.0 5000.0 7.905138e-03 7.739137e-02
21 -1 0 0 103 101  0.000000e+00  0.000000e+00  2.020435e+03  2.020435e+03 0.0 0.0 9.0
 1 -1 0 0 101   0  0.000000e+00  0.000000e+00 -3.216669e+03  3.216669e+03 0.0 0.0 9.0
 1  1 1 2 103   0 -1.216785e+03  2.033068e+03  3.682469e+02  2.397820e+03 0.0047 0.0 9.0
22  1 1 2   0   0  1.216785e+03 -2.033068e+03 -1.564481e+03  2.839284e+03 0.0 0.0 9.0
#pdf 21 1 3.108361e-01 4.948721e-01 5000.0 3.156781e-02 3.024679e-03
</event>
<event>
4 7 1.0 5000.0 7.905138e-03 7.739137e-02
 1 -1 0 0 101   0  0.000000e+00  0.000000e+00  2.636202e+03  2.636202e+03 0.0 0.0 9.0
21 -1 0 0 103 101  0.000000e+00  0.000000e+00 -2.299270e+03  2.299270e+03 0.0 0.0 9.0
22  1 1 2   0   0  5.280682e+02 -2.155036e+03 -9.009422e+02  2.394730e+03 0.0 0.0 9.0
 1  1 1 2 103   0 -5.280682e+02  2.155036e+03  1.237874e+03  2.540741e+03 0.0047 0.0 9.0
#pdf 1 21 4.055695e-01 3.537338e-01 5000.0 4.104855e-02 6.262309e-02
</event>
<event>
4 7 1.0 5000.0 7.905138e-03 7.739137e-02
21 -1 0 0 103 101  0.000000e+00  0.000000e+00  2.171834e+03  2.171834e+03 0.0 0.0 9.0
 1 -1 0 0 101   0  0.000000e+00  0.000000e+00 -2.794800e+03  2.794800e+03 0.0 0.0 9.0
 1  1 1 2 103   0 -1.148428e+03  6.414151e+02 -2.411222e+03  2.746688e+03 0.0047 0.0 9.0
22  1 1 2   0   0  1.148428e+03 -6.414151e+02  1.788256e+03  2.219946e+03 0.0 0.0 9.0
#pdf 21 1 3.341283e-01 4.299692e-01 5000.0 2.371442e-02 7.153841e-03
</event>
<event>
4 7 1.0 5000.0 7.905138e-03 7.739137e-02
21 -1 0 0 103 101  0.000000e+00  0.000000e+00  3.503391e+03  3.503391e+03 0.0 0.0 9.0
 1 -1 0 0 101   0  0.000000e+00  0.000000e+00 -2.066311e+03  2.066311e+03 0.0 0.0 9.0
 1  1 1 2 103   0  1.108431e+03 -3.472931e+01  3.255834e+03  3.439517e+03 0.0047 0.0 9.0
22  1 1 2   0   0 -1.108431e+03  3.472931e+01 -1.818753e+03  2.130185e+03 0.0 0.0 9.0
#pdf 21 1 5.389833e-01 3.178940e-01 5000.0 1.623520e-03 2.893046e-02
</event>
<event>
4 7 1.0 5000.0 7.905138e-03 7.739137e-02
 1 -1 0 0 101   0  0.000000e+00  0.000000e+00  2.439265e+03  2.439265e+03 0.0 0.0 9.0
21 -1 0 0 103 101  0.000000e+00  0.000000e+00 -2.648799e+03  2.648799e+03 0.0 0.0 9.0
22  1 1 2   0   0 -3.336573e+02  2.145151e+03  1.218522e+03  2.489537e+03 0.0 0.0 9.0
 1  1 1 2 103   0  3.336573e+02 -2.145151e+03 -1.428055e+03  2.598527e+03 0.0047 0.0 9.0
#pdf 1 21 3.752716e-01 4.075075e-01 5000.0 5.285618e-02 4.036571e-02
</event>
<event>
4 7 1.0 5000.0 7.905138e-03 7.739137e-02
21 -1 0 0 103 101  0.000000e+00  0.000000e+00  1.537902e+03  1.537902e+03 0.0 0.0 9.0
 1 -1 0 0 101   0  0.000000e+00  0.000000e+00 -3.923658e+03  3.923658e+03 0.0 0.0 9.0
 1  1 1 2 103   0  7.752542e+01  2.119652e+03 -2.570306e+03  3.332477e+03 0.0047 0.0 9.0
22  1 1 2   0   0 -7.752542e+01 -2.119652e+03  1.845497e+02  2.129082e+03 0.0 0.0 9.0
#pdf 21 1 2.366003e-01 6.036397e-01 5000.0 7.888919e-02 6.056216e-04
</event>
<event>
4 7 1.0 5000.0 7.905138e-03 7.739137e-02
21 -1 0 0 103 101  0.000000e+00  0.000000e+00  2.394315e+03  2.394315e+03 0.0 0.0 9.0
 1 -1 0 0 101   0  0.000000e+00  0.000000e+00 -2.593860e+03  2.593860e+03 0.0 0.0 9.0
 1  1 1 2 103   0  6.892176e+02 -2.014664e+03 -1.395655e+03  2.545927e+03 0.0047 0.0 9.0
22  1 1 2   0   0 -6.892176e+02  2.014664e+03  1.196111e+03  2.442248e+03 0.0 0.0 9.0
#pdf 21 1 3.683562e-01 3.990553e-01 5000.0 1.555221e-02 1.060502e-02
</event>
<event>
4 7 1.0 5000.0 7.905138e-03 7.739137e-02
 1 -1 0 0 101   0  0.000000e+00  0.000000e+00  2.157334e+03  2.157334e+03 0.0 0.0 9.0
21 -1 0 0 103 101  0.000000e+00  0.000000e+00 -2.574790e+03  2.574790e+03 0.0 0.0 9.0
 1  1 1 2 103   0 -1.240281e+03 -1.603191e+03  9.985448e+02  2.259560e+03 0.0047 0.0 9.0
22  1 1 2   0   0  1.240281e+03  1.603191e+03 -1.416000e+03  2.472564e+03 0.0 0.0 9.0
#pdf 1 21 3.318976e-01 3.961215e-01 5000.0 7.380348e-02 4.450034e-02
</event>
<event>
4 7 1.0 5000.0 7.905138e-03 7.739137e-02
21 -1 0 0 103 101  0.000000e+00  0.000000e+00  3.179756e+03  3.179756e+03 0.0 0.0 9.0
 1 -1 0 0 101   0  0.000000e+00  0.000000e+00 -1.911424e+03  1.911424e+03 0.0 0.0 9.0
22  1 1 2   0   0 -9.271278e+02 -7.256155e+02  2.870732e+03  3.102771e+03 0.0 0.0 9.0
 1  1 1 2 103   0  9.271278e+02  7.256155e+02 -1.602400e+03  1.988409e+03 0.0047 0.0 9.0
#pdf 21 1 4.891932e-01 2.940652e-01 5000.0 3.268072e-03 3.877499e-02
</event>
<event>
4 7 1.0 5000.0 7.905138e-03 7.739137e-02
21 -1 0 0 103 101  0.000000e+00  0.000000e+00  2.338682e+03  2.338682e+03 0.0 0.0 9.0
 1 -1 0 0 101   0  0.000000e+00  0.000000e+00 -2.662240e+03  2.662240e+03 0.0 0.0 9.0
22  1 1 2   0   0  9.537172e+02  2.135362e+03  7.099829e+02  2.444058e+03 0.0 0.0 9.0
 1  1 1 2 103   0 -9.537172e+02 -2.135362e+03 -1.033541e+03  2.556864e+03 0.0047 0.0 9.0
#pdf 21 1 3.597973e-01 4.095754e-01 5000.0 1.729135e-02 9.283858e-03
</event>
<event>
4 7 1.0 5000.0 7.905138e-03 7.739137e-02
21 -1 0 0 103 101  0.000000e+00  0.000000e+00  3.605470e+03  3.605470e+03 0.0 0.0 9.0
 1 -1 0 0 101   0  0.000000e+00  0.000000e+00 -1.747379e+03  1.747379e+03 0.0 0.0 9.0
 1  1 1 2 103   0  1.688578e+03 -8.629760e+02 -8.243976e+02  2.067766e+03 0.0047 0.0 9.0
22  1 1 2   0   0 -1.688578e+03  8.629760e+02  2.682489e+03  3.285083e+03 0.0 0.0 9.0
#pdf 21 1 5.546876e-01 2.688275e-01 5000.0 1.290069e-03 5.280200e-02
</event>
<event>
4 7 1.0 5000.0 7.905138e-03 7.739137e-02
21 -1 0 0 103 101  0.000000e+00  0.000000e+00  3.020229e+03  3.020229e+03 0.0 0.0 9.0
 1 -1 0 0 101   0  0.000000e+00  0.000000e+00 -2.098376e+03  2.098376e+03 0.0 0.0 9.0
22  1 1 2   0   0 -5.686528e+02  2.070136e+03  1.797600e+03  2.800035e+03 0.0 0.0 9.0
 1  1 1 2 103   0  5.686528e+02 -2.070136e+03 -8.757469e+02  2.318569e+03 0.0047 0.0 9.0
#pdf 21 1 4.646506e-01 3.228270e-01 5000.0 4.546450e-03 2.723387e-02
</event>
<event>
4 7 1.0 5000.0 7.905138e-03 7.739137e-02
21 -1 0 0 103 101  0.000000e+00  0.000000e+00  1.654293e+03  1.654293e+03 0.0 0.0 9.0
 1 -1 0 0 101   0  0.000000e+00  0.000000e+00 -3.807696e+03  3.807696e+03 0.0 0.0 9.0
22  1 1 2   0   0 -2.811450e+02 -2.388619e+03 -1.857208e+03  3.038711e+03 0.0 0.0 9.0
 1  1 1 2 103   0  2.811450e+02  2.388619e+03 -2.961947e+02  2.423278e+03 0.0047 0.0 9.0
#pdf 21 1 2.545066e-01 5.857994e-01 5000.0 6.310583e-02 8.033135e-04
</event>
<event>
4 7 1.0 5000.0 7.905138e-03 7.739137e-02
21 -1 0 0 103 101  0.000000e+00  0.000000e+00  1.968651e+03  1.968651e+03 0.0 0.0 9.0
 1 -1 0 0 101   0  0.000000e+00  0.000000e+00 -3.075422e+03  3.075422e+03 0.0 0.0 9.0
22  1 1 2   0   0 -1.736448e+02 -2.428813e+03 -1.907882e+02  2.442475e+03 0.0 0.0 9.0
 1  1 1 2 103   0  1.736448e+02  2.428813e+03 -9.159822e+02  2.601597e+03 0.0047 0.0 9.0
#pdf 21 1 3.028694e-01 4.731418e-01 5000.0 3.479511e-02 4.060702e-03
</event>
<event>
4 7 1.0 5000.0 7.905138e-03 7.739137e-02
21 -1 0 0 103 101  0.000000e+00  0.000000e+00  2.550689e+03  2.550689e+03 0.0 0.0 9.0
 1 -1 0 0 101   0  0.000000e+00  0.000000e+00 -2.402947e+03  2.402947e+03 0.0 0.0 9.0
22  1 1 2   0   0  2.520192e+02  1.766717e+03  1.790551e+03  2.528018e+03 0.0 0.0 9.0
 1  1 1 2 103   0 -2.520192e+02 -1.766717e+03 -1.642809e+03  2.425618e+03 0.0047 0.0 9.0
#pdf 21 1 3.924137e-01 3.696841e-01 5000.0 1.152802e-02 1.529571e-02
</event>
<event>
4 7 1.0 5000.0 7.905138e-03 7.739137e-02
 1 -1 0 0 101   0  0.000000e+00  0.000000e+00  2.240012e+03  2.240012e+03 0.0 0.0 9.0
21 -1 0 0 103 101  0.000000e+00  0.000000e+00 -2.806413e+03  2.806413e+03 0.0 0.0 9.0
22  1 1 2   0   0 -2.263736e+03 -9.228119e+02 -8.438032e+02  2.586133e+03 0.0 0.0 9.0
 1  1 1 2 103   0  2.263736e+03  9.228119e+02  2.774024e+02  2.460291e+03 0.0047 0.0 9.0
#pdf 1 21 3.446172e-01 4.317558e-01 5000.0 6.713436e-02 3.252056e-02
</event>
<event>
4 7 1.0 5000.0 7.905138e-03 7.739137e-02
 1 -1 0 0 101   0  0.000000e+00  0.000000e+00  2.465262e+03  2.465262e+03 0.0 0.0 9.0
21 -1 0 0 103 101  0.000000e+00  0.000000e+00 -2.454014e+03  2.454014e+03 0.0 0.0 9.0
22  1 1 2   0   0 -1.931480e+02 -8.758846e+02 -2.284646e+03  2.454401e+03 0.0 0.0 9.0
 1  1 1 2 103   0  1.931480e+02  8.758846e+02  2.295894e+03  2.464875e+03 0.0047 0.0 9.0
#pdf 1 21 3.792711e-01 3.775406e-01 5000.0 5.117648e-02 5.189942e-02
</event>
<event>
4 7 1.0 5000.0 7.905138e-03 7.739137e-02
 1 -1 0 0 101   0  0.000000e+00  0.000000e+00  2.361258e+03  2.361258e+03 0.0 0.0 9.0
21 -1 0 0 103 101  0.000000e+00  0.000000e+00 -2.688011e+03  2.688011e+03 0.0 0.0 9.0
 1  1 1 2 103   0 -1.576642e+03  1.607848e+03 -1.295401e+03  2.597891e+03 0.0047 0.0 9.0
22  1 1 2   0   0  1.576642e+03 -1.607848e+03  9.686484e+02  2.451378e+03 0.0 0.0 9.0
#pdf 1 21 3.632705e-01 4.135401e-01 5000.0 5.814902e-02 3.829432e-02
</event>
<event>
4 7 1.0 5000.0 7.905138e-03 7.739137e-02
 1 -1 0 0 101   0  0.000000e+00  0.000000e+00  2.917490e+03  2.917490e+03 0.0 0.0 9.0
21 -1 0 0 103 101  0.000000e+00  0.000000e+00 -1.640238e+03  1.640238e+03 0.0 0.0 9.0
22  1 1 2   0   0 -1.701270e+03  1.332126e+03  2.830575e+02  2.179220e+03 0.0 0.0 9.0
 1  1 1 2 103   0  1.701270e+03 -1.332126e+03  9.941939e+02  2.378508e+03 0.0047 0.0 9.0
#pdf 1 21 4.488446e-01 2.523444e-01 5000.0 2.771394e-02 1.265934e-01
</event>
<event>
4 7 1.0 5000.0 7.905138e-03 7.739137e-02
 1 -1 0 0 101   0  0.000000e+00  0.000000e+00  1.688299e+03  1.688299e+03 0.0 0.0 9.0
21 -1 0 0 103 101  0.000000e+00  0.000000e+00 -3.649644e+03  3.649644e+03 0.0 0.0 9.0
22  1 1 2   0   0 -9.782594e+01  1.909182e+03  7.218130e+02  2.043419e+03 0.0 0.0 9.0
 1  1 1 2 103   0  9.782594e+01 -1.909182e+03 -2.683159e+03  3.294524e+03 0.0047 0.0 9.0
#pdf 1 21 2.597383e-01 5.614837e-01 5000.0 1.208278e-01 8.034971e-03
</event>
<event>
4 7 1.0 5000.0 7.905138e-03 7.739137e-02
 1 -1 0 0 101   0  0.000000e+00  0.000000e+00  3.872372e+03  3.872372e+03 0.0 0.0 9.0
21 -1 0 0 103 101  0.000000e+00  0.000000e+00 -1.611754e+03  1.611754e+03 0.0 0.0 9.0
 1  1 1 2 103   0  1.246264e+03  2.121670e+03  1.604504e+03  2.937532e+03 0.0047 0.0 9.0
22  1 1 2   0   0 -1.246264e+03 -2.121670e+03  6.561143e+02  2.546595e+03 0.0 0.0 9.0
#pdf 1 21 5.957496e-01 2.479622e-01 5000.0 5.085617e-03 1.300963e-01
</event>
<event>
4 7 1.0 5000.0 7.905138e-03 7.739137e-02
21 -1 0 0 103 101  0.000000e+00  0.000000e+00  1.875656e+03  1.875656e+03 0.0 0.0 9.0
 1 -1 0 0 101   0  0.000000e+00  0.000000e+00 -3.373567e+03  3.373567e+03 0.0 0.0 9.0
 1  1 1 2 103   0  1.170469e+03  4.048973e+02  1.535484e+03  1.972727e+03 0.0047 0.0 9.0
22  1 1 2   0   0 -1.170469e+03 -4.048973e+02 -3.033396e+03  3.276496e+03 0.0 0.0 9.0
#pdf 21 1 2.885624e-01 5.190103e-01 5000.0 4.145418e-02 2.161698e-03
</event>
<event>
4 7 1.0 5000.0 7.905138e-03 7.739137e-02
21 -1 0 0 103 101  0.000000e+00  0.000000e+00  1.627260e+03  1.627260e+03 0.0 0.0 9.0
 1 -1 0 0 101   0  0.000000e+00  0.000000e+00 -3.858125e+03  3.858125e+03 0.0 0.0 9.0
22  1 1 2   0   0  1.217855e+03  1.017026e+03  1.007287e+03  1.879399e+03 0.0 0.0 9.0
 1  1 1 2 103   0 -1.217855e+03 -1.017026e+03 -3.238151e+03  3.605986e+03 0.0047 0.0 9.0
#pdf 21 1 2.503477e-01 5.935577e-01 5000.0 6.645148e-02 7.108851e-04
</event>
<event>
4 7 1.0 5000.0 7.905138e-03 7.739137e-02
21 -1 0 0 103 101  0.000000e+00  0.000000e+00  2.251240e+03  2.251240e+03 0.0 0.0 9.0
 1 -1 0 0 101   0  0.000000e+00  0.000000e+00 -2.799433e+03  2.799433e+03 0.0 0.0 9.0
22  1 1 2   0   0 -2.228328e+03 -9.844707e+02 -8.839705e+02  2.591531e+03 0.0 0.0 9.0
 1  1 1 2 103   0  2.228328e+03  9.844707e+02  3.357776e+02  2.459141e+03 0.0047 0.0 9.0
#pdf 21 1 3.463446e-01 4.306819e-01 5000.0 2.041572e-02 7.088903e-03
</event>
<event>
4 7 1.0 5000.0 7.905138e-03 7.739137e-02
21 -1 0 0 103 101  0.000000e+00  0.000000e+00  1.083410e+03  1.083410e+03 0.0 0.0 9.0
 1 -1 0 0 101   0  0.000000e+00  0.000000e+00 -4.046435e+03  4.046435e+03 0.0 0.0 9.0
22  1 1 2   0   0 -7.069759e+02 -1.944279e+03 -1.876398e+03  2.793010e+03 0.0 0.0 9.0
 1  1 1 2 103   0  7.069759e+02  1.944279e+03 -1.086627e+03  2.336834e+03 0.0047 0.0 9.0
#pdf 21 1 1.666784e-01 6.225284e-01 5000.0 1.964736e-01 4.443351e-04
</event>
<event>
4 7 1.0 5000.0 7.905138e-03 7.739137e-02
21 -1 0 0 103 101  0.000000e+00  0.000000e+00  2.404539e+03  2.404539e+03 0.0 0.0 9.0
 1 -1 0 0 101   0  0.000000e+00  0.000000e+00 -2.568900e+03  2.568900e+03 0.0 0.0 9.0
 1  1 1 2 103   0 -1.661544e+03 -4.214191e+02 -1.882802e+03  2.546226e+03 0.0047 0.0 9.0
22  1 1 2   0   0  1.661544e+03  4.214191e+02  1.718441e+03  2.427213e+03 0.0 0.0 9.0
#pdf 21 1 3.699291e-01 3.952154e-01 5000.0 1.524915e-02 1.112922e-02
</event>
<event>
4 7 1.0 5000.0 7.905138e-03 7.739137e-02
 1 -1 0 0 101   0  0.000000e+00  0.000000e+00  2.699670e+03  2.699670e+03 0.0 0.0 9.0
21 -1 0 0 103 101  0.000000e+00  0.000000e+00 -2.424883e+03  2.424883e+03 0.0 0.0 9.0
22  1 1 2   0   0 -8.210289e+02  4.815449e+02 -2.240983e+03  2.434744e+03 0.0 0.0 9.0
 1  1 1 2 103   0  8.210289e+02 -4.815449e+02  2.515770e+03  2.689809e+03 0.0047 0.0 9.0
#pdf 1 21 4.153338e-01 3.730589e-01 5000.0 3.769381e-02 5.379804e-02
</event>
<event>
4 7 1.0 5000.0 7.905138e-03 7.739137e-02
21 -1 0 0 103 101  0.000000e+00  0.000000e+00  2.032672e+03  2.032672e+03 0.0 0.0 9.0
 1 -1 0 0 101   0  0.000000e+00  0.000000e+00 -2.977882e+03  2.977882e+03 0.0 0.0 9.0
22  1 1 2   0   0  2.295650e+03  6.547491e+02  1.335531e+02  2.390929e+03 0.0 0.0 9.0
 1  1 1 2 103   0 -2.295650e+03 -6.547491e+02 -1.078764e+03  2.619625e+03 0.0047 0.0 9.0
#pdf 21 1 3.127187e-01 4.581358e-01 5000.0 3.084045e-02 4.957173e-03
</event>
<event>
4 7 1.0 5000.0 7.905138e-03 7.739137e-02
21 -1 0 0 103 101  0.000000e+00  0.000000e+00  2.703874e+03  2.703874e+03 0.0 0.0 9.0
 1 -1 0 0 101   0  0.000000e+00  0.000000e+00 -2.355932e+03  2.355932e+03 0.0 0.0 9.0
22  1 1 2   0   0 -1.577251e+03 -9.498115e+02  1.904417e+03  2.648899e+03 0.0 0.0 9.0
 1  1 1 2 103   0  1.577251e+03  9.498115e+02 -1.556475e+03  2.410908e+03 0.0047 0.0 9.0
#pdf 21 1 4.159807e-01 3.624511e-01 5000.0 8.557281e-03 1.673839e-02
</event>
<event>
4 7 1.0 5000.0 7.905138e-03 7.739137e-02
21 -1 0 0 103 101  0.000000e+00  0.000000e+00  2.601019e+03  2.601019e+03 0.0 0.0 9.0
 1 -1 0 0 101   0  0.000000e+00  0.000000e+00 -2.261004e+03  2.261004e+03 0.0 0.0 9.0
22  1 1 2   0   0  7.101557e+02  2.068954e+03  1.219489e+03  2.504405e+03 0.0 0.0 9.0
 1  1 1 2 103   0 -7.101557e+02 -2.068954e+03 -8.794745e+02  2.357619e+03 0.0047 0.0 9.0
#pdf 21 1 4.001568e-01 3.478468e-01 5000.0 1.045914e-02 2.004334e-02
</event>
<event>
4 7 1.0 5000.0 7.905138e-03 7.739137e-02
 1 -1 0 0 101   0  0.000000e+00  0.000000e+00  3.067449e+03  3.067449e+03 0.0 0.0 9.0
21 -1 0 0 103 101  0.000000e+00  0.000000e+00 -1.782325e+03  1.782325e+03 0.0 0.0 9.0
 1  1 1 2 103   0  1.758161e+02 -1.895416e+03  2.050721e+03  2.798030e+03 0.0047 0.0 9.0
22  1 1 2   0   0 -1.758161e+02  1.895416e+03 -7.655973e+02  2.051744e+03 0.0 0.0 9.0
#pdf 1 21 4.719152e-01 2.742038e-01 5000.0 2.210558e-02 1.100836e-01
</event>
<event>
4 7 1.0 5000.0 7.905138e-03 7.739137e-02
 1 -1 0 0 101   0  0.000000e+00  0.000000e+00  2.922633e+03  2.922633e+03 0.0 0.0 9.0
21 -1 0 0 103 101  0.000000e+00  0.000000e+00 -2.039835e+03  2.039835e+03 0.0 0.0 9.0
 1  1 1 2 103   0 -9.919544e+01  4.964357e+02 -1.985916e+03  2.049427e+03 0.0047 0.0 9.0
22  1 1 2   0   0  9.919544e+01 -4.964357e+02  2.868714e+03  2.913041e+03 0.0 0.0 9.0
#pdf 1 21 4.496358e-01 3.138207e-01 5000.0 2.750781e-02 8.408755e-02
</event>
<event>
4 7 1.0 5000.0 7.905138e-03 7.739137e-02
21 -1 0 0 103 101  0.000000e+00  0.000000e+00  2.999558e+03  2.999558e+03 0.0 0.0 9.0
 1 -1 0 0 101   0  0.000000e+00  0.000000e+00 -1.878205e+03  1.878205e+03 0.0 0.0 9.0
 1  1 1 2 103   0  8.297632e+02  1.627107e+03  2.118244e+03  2.796952e+03 0.0047 0.0 9.0
22  1 1 2   0   0 -8.297632e+02 -1.627107e+03 -9.968912e+02  2.080811e+03 0.0 0.0 9.0
#pdf 21 1 4.614704e-01 2.889546e-01 5000.0 4.741814e-03 4.125790e-02
</event>
<event>
4 7 1.0 5000.0 7.905138e-03 7.739137e-02
21 -1 0 0 103 101  0.000000e+00  0.000000e+00  1.506657e+03  1.506657e+03 0.0 0.0 9.0
 1 -1 0 0 101   0  0.000000e+00  0.000000e+00 -3.950066e+03  3.950066e+03 0.0 0.0 9.0
22  1 1 2   0   0 -7.443354e+02  2.124640e+03 -2.272788e+03  3.199015e+03 0.0 0.0 9.0
 1  1 1 2 103   0  7.443354e+02 -2.124640e+03 -1.706215e+02  2.257708e+03 0.0047 0.0 9.0
#pdf 21 1 2.317933e-01 6.077024e-01 5000.0 8.374189e-02 5.671220e-04
</event>
<event>
4 7 1.0 5000.0 7.905138e-03 7.739137e-02
 1 -1 0 0 101   0  0.000000e+00  0.000000e+00  2.219421e+03  2.219421e+03 0.0 0.0 9.0
21 -1 0 0 103 101  0.000000e+00  0.000000e+00 -2.818161e+03  2.818161e+03 0.0 0.0 9.0
 1  1 1 2 103   0 -1.080376e+03 -4.790992e+02 -2.519177e+03  2.782625e+03 0.0047 0.0 9.0
22  1 1 2   0   0  1.080376e+03  4.790992e+02  1.920437e+03  2.254956e+03 0.0 0.0 9.0
#pdf 1 21 3.414494e-01 4.335632e-01 5000.0 6.875273e-02 3.198802e-02
</event>
<event>
4 7 1.0 5000.0 7.905138e-03 7.739137e-02
21 -1 0 0 103 101  0.000000e+00  0.000000e+00  2.714262e+03  2.714262e+03 0.0 0.0 9.0
 1 -1 0 0 101   0  0.000000e+00  0.000000e+00 -2.317374e+03  2.317374e+03 0.0 0.0 9.0
22  1 1 2   0   0 -1.829695e+03  1.711031e+03  7.744244e+01  2.506273e+03 0.0 0.0 9.0
 1  1 1 2 103   0  1.829695e+03 -1.711031e+03  3.194460e+02  2.525362e+03 0.0047 0.0 9.0
#pdf 21 1 4.175788e-01 3.565190e-01 5000.0 8.385024e-03 1.800199e-02
</event>
<event>
4 7 1.0 5000.0 7.905138e-03 7.739137e-02
 1 -1 0 0 101   0  0.000000e+00  0.000000e+00  4.748069e+03  4.748069e+03 0.0 0.0 9.0
21 -1 0 0 103 101  0.000000e+00  0.000000e+00 -1.325426e+03  1.325426e+03 0.0 0.0 9.0
22  1 1 2   0   0  6.882972e+02 -1.083406e+03  4.320463e+03  4.507097e+03 0.0 0.0 9.0
 1  1 1 2 103   0 -6.882972e+02  1.083406e+03 -8.978203e+02  1.566398e+03 0.0047 0.0 9.0
#pdf 1 21 7.304721e-01 2.039117e-01 5000.0 4.799135e-04 1.691056e-01
</event>
<event>
4 7 1.0 5000.0 7.905138e-03 7.739137e-02
 1 -1 0 0 101   0  0.000000e+00  0.000000e+00  2.339987e+03  2.339987e+03 0.0 0.0 9.0
21 -1 0 0 103 101  0.000000e+00  0.000000e+00 -2.512020e+03  2.512020e+03 0.0 0.0 9.0
22  1 1 2   0   0  2.087696e+03 -4.483419e+01 -1.318705e+03  2.469710e+03 0.0 0.0 9.0
 1  1 1 2 103   0 -2.087696e+03  4.483419e+01  1.146671e+03  2.382297e+03 0.0047 0.0 9.0
#pdf 1 21 3.599980e-01 3.864647e-01 5000.0 5.965566e-02 4.824135e-02
</event>
<event>
4 7 1.0 5000.0 7.905138e-03 7.739137e-02
 1 -1 0 0 101   0  0.000000e+00  0.000000e+00  1.665925e+03  1.665925e+03 0.0 0.0 9.0
21 -1 0 0 103 101  0.000000e+00  0.000000e+00 -3.775820e+03  3.775820e+03 0.0 0.0 9.0
 1  1 1 2 103   0 -2.341564e+03 -8.816313e+02 -8.669281e+02  2.647973e+03 0.0047 0.0 9.0
22  1 1 2   0   0  2.341564e+03  8.816313e+02 -1.242967e+03  2.793772e+03 0.0 0.0 9.0
#pdf 1 21 2.562962e-01 5.808954e-01 5000.0 1.234884e-01 6.232012e-03
</event>
<event>
4 7 1.0 5000.0 7.905138e-03 7.739137e-02
21 -1 0 0 103 101  0.000000e+00  0.000000e+00  3.061934e+03  3.061934e+03 0.0 0.0 9.0
 1 -1 0 0 101   0  0.000000e+00  0.000000e+00 -2.014022e+03  2.014022e+03 0.0 0.0 9.0
 1  1 1 2 103   0 -5.933075e+02  2.408269e+03  3.986658e+02  2.512112e+03 0.0047 0.0 9.0
22  1 1 2   0   0  5.933075e+02 -2.408269e+03  6.492464e+02  2.563844e+03 0.0 0.0 9.0
#pdf 21 1 4.710668e-01 3.098495e-01 5000.0 4.174953e-03 3.195512e-02
</event>
<event>
4 7 1.0 5000.0 7.905138e-03 7.739137e-02
21 -1 0 0 103 101  0.000000e+00  0.000000e+00  1.920059e+03  1.920059e+03 0.0 0.0 9.0
 1 -1 0 0 101   0  0.000000e+00  0.000000e+00 -3.218867e+03  3.218867e+03 0.0 0.0 9.0
 1  1 1 2 103   0 -1.474822e+03  9.052117e+01  1.416961e+03  2.047211e+03 0.0047 0.0 9.0
22  1 1 2   0   0  1.474822e+03 -9.052117e+01 -2.715769e+03  3.091714e+03 0.0 0.0 9.0
#pdf 21 1 2.953937e-01 4.952103e-01 5000.0 3.814781e-02 3.010704e-03
</event>
<event>
4 7 1.0 5000.0 7.905138e-03 7.739137e-02
 1 -1 0 0 101   0  0.000000e+00  0.000000e+00  1.613744e+03  1.613744e+03 0.0 0.0 9.0
21 -1 0 0 103 101  0.000000e+00  0.000000e+00 -3.842474e+03  3.842474e+03 0.0 0.0 9.0
 1  1 1 2 103   0 -1.593584e+02 -2.478854e+03 -1.306184e+03  2.806463e+03 0.0047 0.0 9.0
22  1 1 2   0   0  1.593584e+02  2.478854e+03 -9.225458e+02  2.649756e+03 0.0 0.0 9.0
#pdf 1 21 2.482683e-01 5.911499e-01 5000.0 1.298496e-01 5.420961e-03
</event>
<event>
4 7 1.0 5000.0 7.905138e-03 7.739137e-02
21 -1 0 0 103 101  0.000000e+00  0.000000e+00  2.871073e+03  2.871073e+03 0.0 0.0 9.0
 1 -1 0 0 101   0  0.000000e+00  0.000000e+00 -2.132543e+03  2.132543e+03 0.0 0.0 9.0
 1  1 1 2 103   0  3.417629e+02  2.133501e+03 -8.499304e+02  2.321855e+03 0.0047 0.0 9.0
22  1 1 2   0   0 -3.417629e+02 -2.133501e+03  1.588461e+03  2.681760e+03 0.0 0.0 9.0
#pdf 21 1 4.417035e-01 3.280835e-01 5000.0 6.152052e-03 2.553828e-02
</event>
<event>
4 7 1.0 5000.0 7.905138e-03 7.739137e-02
 1 -1 0 0 101   0  0.000000e+00  0.000000e+00  3.612865e+03  3.612865e+03 0.0 0.0 9.0
21 -1 0 0 103 101  0.000000e+00  0.000000e+00 -1.698665e+03  1.698665e+03 0.0 0.0 9.0
 1  1 1 2 103   0 -8.127850e+02 -7.030751e+02  3.349957e+03  3.518117e+03 0.0047 0.0 9.0
22  1 1 2   0   0  8.127850e+02  7.030751e+02 -1.435757e+03  1.793414e+03 0.0 0.0 9.0
#pdf 1 21 5.558254e-01 2.613331e-01 5000.0 8.624782e-03 1.196093e-01
</event>
<event>
4 7 1.0 5000.0 7.905138e-03 7.739137e-02
21 -1 0 0 103 101  0.000000e+00  0.000000e+00  2.682133e+03  2.682133e+03 0.0 0.0 9.0
 1 -1 0 0 101   0  0.000000e+00  0.000000e+00 -2.371115e+03  2.371115e+03 0.0 0.0 9.0
22  1 1 2   0   0  1.010094e+03  1.676015e+03 -1.438213e+03  2.428533e+03 0.0 0.0 9.0
 1  1 1 2 103   0 -1.010094e+03 -1.676015e+03  1.749232e+03  2.624715e+03 0.0047 0.0 9.0
#pdf 21 1 4.126359e-01 3.647869e-01 5000.0 8.929165e-03 1.626358e-02
</event>
<event>
4 7 1.0 5000.0 7.905138e-03 7.739137e-02
21 -1 0 0 103 101  0.000000e+00  0.000000e+00  2.734273e+03  2.734273e+03 0.0 0.0 9.0
 1 -1 0 0 101   0  0.000000e+00  0.000000e+00 -2.303810e+03  2.303810e+03 0.0 0.0 9.0
 1  1 1 2 103   0 -1.911568e+03 -6.031442e+02  1.731195e+03  2.648568e+03 0.0047 0.0 9.0
22  1 1 2   0   0  1.911568e+03  6.031442e+02 -1.300732e+03  2.389515e+03 0.0 0.0 9.0
#pdf 21 1 4.206574e-01 3.544323e-01 5000.0 8.062383e-03 1.847478e-02
</event>
<event>
4 7 1.0 5000.0 7.905138e-03 7.739137e-02
 1 -1 0 0 101   0  0.000000e+00  0.000000e+00  1.498748e+03  1.498748e+03 0.0 0.0 9.0
21 -1 0 0 103 101  0.000000e+00  0.000000e+00 -4.255477e+03  4.255477e+03 0.0 0.0 9.0
22  1 1 2   0   0  1.157531e+03 -1.586759e+02 -3.929068e+03  4.099102e+03 0.0 0.0 9.0
 1  1 1 2 103   0 -1.157531e+03  1.586759e+02  1.172339e+03  1.655124e+03 0.0047 0.0 9.0
#pdf 1 21 2.305766e-01 6.546888e-01 5000.0 1.446526e-01 2.064296e-03
</event>
<event>
4 7 1.0 5000.0 7.905138e-03 7.739137e-02
 1 -1 0 0 101   0  0.000000e+00  0.000000e+00  3.277059e+03  3.277059e+03 0.0 0.0 9.0
21 -1 0 0 103 101  0.000000e+00  0.000000e+00 -1.842021e+03  1.842021e+03 0.0 0.0 9.0
22  1 1 2   0   0  1.988622e+03  1.250518e+03  1.467304e+03  2.769728e+03 0.0 0.0 9.0
 1  1 1 2 103   0 -1.988622e+03 -1.250518e+03 -3.226493e+01  2.349352e+03 0.0047 0.0 9.0
#pdf 1 21 5.041630e-01 2.833878e-01 5000.0 1.576023e-02 1.036190e-01
</event>
<event>
4 7 1.0 5000.0 7.905138e-03 7.739137e-02
 1 -1 0 0 101   0  0.000000e+00  0.000000e+00  2.526383e+03  2.526383e+03 0.0 0.0 9.0
21 -1 0 0 103 101  0.000000e+00  0.000000e+00 -2.433813e+03  2.433813e+03 0.0 0.0 9.0
22  1 1 2   0   0 -1.644038e+03  1.845539e+03 -1.534181e+02  2.476371e+03 0.0 0.0 9.0
 1  1 1 2 103   0  1.644038e+03 -1.845539e+03  2.459884e+02  2.483825e+03 0.0047 0.0 9.0
#pdf 1 21 3.886743e-01 3.744327e-01 5000.0 4.736486e-02 5.321225e-02
</event>
<event>
4 7 1.0 5000.0 7.905138e-03 7.739137e-02
21 -1 0 0 103 101  0.000000e+00  0.000000e+00  2.007962e+03  2.007962e+03 0.0 0.0 9.0
 1 -1 0 0 101   0  0.000000e+00  0.000000e+00 -2.997861e+03  2.997861e+03 0.0 0.0 9.0
22  1 1 2   0   0 -1.245267e+03  2.100747e+03 -7.358452e+02  2.550549e+03 0.0 0.0 9.0
 1  1 1 2 103   0  1.245267e+03 -2.100747e+03 -2.540538e+02  2.455275e+03 0.0047 0.0 9.0
#pdf 21 1 3.089172e-01 4.612094e-01 5000.0 3.232475e-02 4.758293e-03
</event>
<event>
4 7 1.0 5000.0 7.905138e-03 7.739137e-02
21 -1 0 0 103 101  0.000000e+00  0.000000e+00  1.897312e+03  1.897312e+03 0.0 0.0 9.0
 1 -1 0 0 101   0  0.000000e+00  0.000000e+00 -3.366677e+03  3.366677e+03 0.0 0.0 9.0
22  1 1 2   0   0  1.042547e+02  1.656996e+03 -2.719113e+03  3.185919e+03 0.0 0.0 9.0
 1  1 1 2 103   0 -1.042547e+02 -1.656996e+03  1.249747e+03  2.078070e+03 0.0047 0.0 9.0
#pdf 21 1 2.918941e-01 5.179504e-01 5000.0 3.981454e-02 2.194411e-03
</event>
<event>
4 7 1.0 5000.0 7.905138e-03 7.739137e-02
 1 -1 0 0 101   0  0.000000e+00  0.000000e+00  2.300087e+03  2.300087e+03 0.0 0.0 9.0
21 -1 0 0 103 101  0.000000e+00  0.000000e+00 -2.609567e+03  2.609567e+03 0.0 0.0 9.0
 1  1 1 2 103   0 -7.163559e+02 -2.002372e+03 -1.373539e+03  2.531654e+03 0.0047 0.0 9.0
22  1 1 2   0   0  7.163559e+02  2.002372e+03  1.064059e+03  2.378000e+03 0.0 0.0 9.0
#pdf 1 21 3.538595e-01 4.014718e-01 5000.0 6.256237e-02 4.252059e-02
</event>
<event>
4 7 1.0 5000.0 7.905138e-03 7.739137e-02
21 -1 0 0 103 101  0.000000e+00  0.000000e+00  2.662889e+03  2.662889e+03 0.0 0.0 9.0
 1 -1 0 0 101   0  0.000000e+00  0.000000e+00 -2.361693e+03  2.361693e+03 0.0 0.0 9.0
 1  1 1 2 103   0  1.711411e+03 -1.084002e+03  1.631414e+03  2.601057e+03 0.0047 0.0 9.0
22  1 1 2   0   0 -1.711411e+03  1.084002e+03 -1.330219e+03  2.423524e+03 0.0 0.0 9.0
#pdf 21 1 4.096752e-01 3.633374e-01 5000.0 9.272069e-03 1.655714e-02
</event>
<event>
4 7 1.0 5000.0 7.905138e-03 7.739137e-02
 1 -1 0 0 101   0  0.000000e+00  0.000000e+00  1.863687e+03  1.863687e+03 0.0 0.0 9.0
21 -1 0 0 103 101  0.000000e+00  0.000000e+00 -3.300785e+03  3.300785e+03 0.0 0.0 9.0
 1  1 1 2 103   0 -7.318601e+02 -1.089648e+03  1.472428e+03  1.972561e+03 0.0047 0.0 9.0
22  1 1 2   0   0  7.318601e+02  1.089648e+03 -2.909527e+03  3.191911e+03 0.0 0.0 9.0
#pdf 1 21 2.867211e-01 5.078131e-01 5000.0 1.013433e-01 1.514234e-02
</event>
<event>
4 7 1.0 5000.0 7.905138e-03 7.739137e-02
 1 -1 0 0 101   0  0.000000e+00  0.000000e+00  2.447730e+03  2.447730e+03 0.0 0.0 9.0
21 -1 0 0 103 101  0.000000e+00  0.000000e+00 -2.554530e+03  2.554530e+03 0.0 0.0 9.0
 1  1 1 2 103   0  1.056872e+03 -1.680379e+03 -1.574322e+03  2.533602e+03 0.0047 0.0 9.0
22  1 1 2   0   0 -1.056872e+03  1.680379e+03  1.467523e+03  2.468658e+03 0.0 0.0 9.0
#pdf 1 21 3.765739e-01 3.930046e-01 5000.0 5.230587e-02 4.568363e-02
</event>
<event>
4 7 1.0 5000.0 7.905138e-03 7.739137e-02
21 -1 0 0 103 101  0.000000e+00  0.000000e+00  3.189893e+03  3.189893e+03 0.0 0.0 9.0
 1 -1 0 0 101   0  0.000000e+00  0.000000e+00 -1.969152e+03  1.969152e+03 0.0 0.0 9.0
 1  1 1 2 103   0 -8.844223e+02 -1.575210e+03 -1.177614e+03  2.156447e+03 0.0047 0.0 9.0
22  1 1 2   0   0  8.844223e+02  1.575210e+03  2.398355e+03  3.002598e+03 0.0 0.0 9.0
#pdf 21 1 4.907528e-01 3.029464e-01 5000.0 3.199519e-03 3.476298e-02
</event>
<event>
4 7 1.0 5000.0 7.905138e-03 7.739137e-02
 1 -1 0 0 101   0  0.000000e+00  0.000000e+00  2.765394e+03  2.765394e+03 0.0 0.0 9.0
21 -1 0 0 103 101  0.000000e+00  0.000000e+00 -2.142535e+03  2.142535e+03 0.0 0.0 9.0
 1  1 1 2 103   0  2.193862e+03  8.863509e+02 -2.644569e+02  2.380879e+03 0.0047 0.0 9.0
22  1 1 2   0   0 -2.193862e+03 -8.863509e+02  8.873159e+02  2.527049e+03 0.0 0.0 9.0
#pdf 1 21 4.254452e-01 3.296208e-01 5000.0 3.443822e-02 7.504690e-02
</event>
<event>
4 7 1.0 5000.0 7.905138e-03 7.739137e-02
21 -1 0 0 103 101  0.000000e+00  0.000000e+00  2.384982e+03  2.384982e+03 0.0 0.0 9.0
 1 -1 0 0 101   0  0.000000e+00  0.000000e+00 -2.335981e+03  2.335981e+03 0.0 0.0 9.0
22  1 1 2   0   0  1.279779e+03 -1.916089e+03 -4.874271e+02  2.355168e+03 0.0 0.0 9.0
 1  1 1 2 103   0 -1.279779e+03  1.916089e+03  5.364288e+02  2.365795e+03 0.0047 0.0 9.0
#pdf 21 1 3.669204e-01 3.593816e-01 5000.0 1.583640e-02 1.737957e-02
</event>
<event>
4 7 1.0 5000.0 7.905138e-03 7.739137e-02
21 -1 0 0 103 101  0.000000e+00  0.000000e+00  2.267445e+03  2.267445e+03 0.0 0.0 9.0
 1 -1 0 0 101   0  0.000000e+00  0.000000e+00 -2.728700e+03  2.728700e+03 0.0 0.0 9.0
22  1 1 2   0   0 -1.570067e+03  2.022563e+02 -2.157491e+03  2.675965e+03 0.0 0.0 9.0
 1  1 1 2 103   0  1.570067e+03 -2.022563e+02  1.696236e+03  2.320180e+03 0.0047 0.0 9.0
#pdf 21 1 3.488376e-01 4.198000e-01 5000.0 1.980098e-02 8.151060e-03
</event>
<event>
4 7 1.0 5000.0 7.905138e-03 7.739137e-02
21 -1 0 0 103 101  0.000000e+00  0.000000e+00  3.036246e+03  3.036246e+03 0.0 0.0 9.0
 1 -1 0 0 101   0  0.000000e+00  0.000000e+00 -1.951944e+03  1.951944e+03 0.0 0.0 9.0
 1  1 1 2 103   0  1.648433e+03 -5.578149e+02 -1.201931e+03  2.114977e+03 0.0047 0.0 9.0
22  1 1 2   0   0 -1.648433e+03  5.578149e+02  2.286233e+03  2.873213e+03 0.0 0.0 9.0
#pdf 21 1 4.671147e-01 3.002990e-01 5000.0 4.400443e-03 3.587802e-02
</event>
<event>
4 7 1.0 5000.0 7.905138e-03 7.739137e-02
 1 -1 0 0 101   0  0.000000e+00  0.000000e+00  4.115547e+03  4.115547e+03 0.0 0.0 9.0
21 -1 0 0 103 101  0.000000e+00  0.000000e+00 -1.611080e+03  1.611080e+03 0.0 0.0 9.0
22  1 1 2   0   0  1.155129e+02 -1.705131e+03 -8.894916e+02  1.926658e+03 0.0 0.0 9.0
 1  1 1 2 103   0 -1.155129e+02  1.705131e+03  3.393959e+03  3.799970e+03 0.0047 0.0 9.0
#pdf 1 21 6.331611e-01 2.478585e-01 5000.0 2.923851e-03 1.301799e-01
</event>
<event>
4 7 1.0 5000.0 7.905138e-03 7.739137e-02
 1 -1 0 0 101   0  0.000000e+00  0.000000e+00  3.295805e+03  3.295805e+03 0.0 0.0 9.0
21 -1 0 0 103 101  0.000000e+00  0.000000e+00 -1.909013e+03  1.909013e+03 0.0 0.0 9.0
 1  1 1 2 103   0 -2.046563e+03  7.994847e+02 -5.620025e+02  2.267916e+03 0.0047 0.0 9.0
22  1 1 2   0   0  2.046563e+03 -7.994847e+02  1.948795e+03  2.936902e+03 0.0 0.0 9.0
#pdf 1 21 5.070469e-01 2.936943e-01 5000.0 1.527044e-02 9.669223e-02
</event>
<event>
4 7 1.0 5000.0 7.905138e-03 7.739137e-02
21 -1 0 0 103 101  0.000000e+00  0.000000e+00  3.203072e+03  3.203072e+03 0.0 0.0 9.0
 1 -1 0 0 101   0  0.000000e+00  0.000000e+00 -2.163264e+03  2.163264e+03 0.0 0.0 9.0
22  1 1 2   0   0 -9.800555e+02 -1.151953e+03  2.715958e+03  3.108686e+03 0.0 0.0 9.0
 1  1 1 2 103   0  9.800555e+02  1.151953e+03 -1.676150e+03  2.257650e+03 0.0047 0.0 9.0
#pdf 21 1 4.927803e-01 3.328098e-01 5000.0 3.112375e-03 2.410165e-02
</event>
<event>
4 7 1.0 5000.0 7.905138e-03 7.739137e-02
 1 -1 0 0 101   0  0.000000e+00  0.000000e+00  1.819880e+03  1.819880e+03 0.0 0.0 9.0
21 -1 0 0 103 101  0.000000e+00  0.000000e+00 -3.333945e+03  3.333945e+03 0.0 0.0 9.0
 1  1 1 2 103   0  5.260324e+02  1.108389e+03 -2.991549e+03  3.233358e+03 0.0047 0.0 9.0
22  1 1 2   0   0 -5.260324e+02 -1.108389e+03  1.477484e+03  1.920468e+03 0.0 0.0 9.0
#pdf 1 21 2.799816e-01 5.129147e-01 5000.0 1.059830e-01 1.431021e-02
</event>
<event>
4 7 1.0 5000.0 7.905138e-03 7.739137e-02
 1 -1 0 0 101   0  0.000000e+00  0.000000e+00  2.182257e+03  2.182257e+03 0.0 0.0 9.0
21 -1 0 0 103 101  0.000000e+00  0.000000e+00 -2.645417e+03  2.645417e+03 0.0 0.0 9.0
22  1 1 2   0   0  4.557157e+02  7.993281e+02 -2.461410e+03  2.627764e+03 0.0 0.0 9.0
 1  1 1 2 103   0 -4.557157e+02 -7.993281e+02  1.998250e+03  2.199911e+03 0.0047 0.0 9.0
#pdf 1 21 3.357319e-01 4.069872e-01 5000.0 7.174408e-02 4.054817e-02
</event>
<event>
4 7 1.0 5000.0 7.905138e-03 7.739137e-02
 1 -1 0 0 101   0  0.000000e+00  0.000000e+00  1.627971e+03  1.627971e+03 0.0 0.0 9.0
21 -1 0 0 103 101  0.000000e+00  0.000000e+00 -3.898749e+03  3.898749e+03 0.0 0.0 9.0
22  1 1 2   0   0 -2.248357e+03 -4.693958e+02  6.604147e-02  2.296833e+03 0.0 0.0 9.0
 1  1 1 2 103   0  2.248357e+03  4.693958e+02 -2.270844e+03  3.229887e+03 0.0047 0.0 9.0
#pdf 1 21 2.504571e-01 5.998075e-01 5000.0 1.280945e-01 4.804294e-03
</event>
<event>
4 7 1.0 5000.0 7.905138e-03 7.739137e-02
 1 -1 0 0 101   0  0.000000e+00  0.000000e+00  3.770155e+03  3.770155e+03 0.0 0.0 9.0
21 -1 0 0 103 101  0.000000e+00  0.000000e+00 -1.657555e+03  1.657555e+03 0.0 0.0 9.0
22  1 1 2   0   0 -7.368806e+01  1.545872e+03  3.187548e+03  3.543390e+03 0.0 0.0 9.0
 1  1 1 2 103   0  7.368806e+01 -1.545872e+03 -1.074949e+03  1.884321e+03 0.0047 0.0 9.0
#pdf 1 21 5.800239e-01 2.550085e-01 5000.0 6.305038e-03 1.244944e-01
</event>
<event>
4 7 1.0 5000.0 7.905138e-03 7.739137e-02
 1 -1 0 0 101   0  0.000000e+00  0.000000e+00  2.357976e+03  2.357976e+03 0.0 0.0 9.0
21 -1 0 0 103 101  0.000000e+00  0.000000e+00 -2.707741e+03  2.707741e+03 0.0 0.0 9.0
22  1 1 2   0   0 -1.904736e+03 -1.184778e+03  9.911164e+02  2.452352e+03 0.0 0.0 9.0
 1  1 1 2 103   0  1.904736e+03  1.184778e+03 -1.340881e+03  2.613366e+03 0.0047 0.0 9.0
#pdf 1 21 3.627656e-01 4.165756e-01 5000.0 5.837985e-02 3.728217e-02
</event>
<event>
4 7 1.0 5000.0 7.905138e-03 7.739137e-02
 1 -1 0 0 101   0  0.000000e+00  0.000000e+00  1.875930e+03  1.875930e+03 0.0 0.0 9.0
21 -1 0 0 103 101  0.000000e+00  0.000000e+00 -3.306685e+03  3.306685e+03 0.0 0.0 9.0
 1  1 1 2 103   0 -1.714332e+03  1.732708e+03 -1.247829e+03  2.738300e+03 0.0047 0.0 9.0
22  1 1 2   0   0  1.714332e+03 -1.732708e+03 -1.829258e+02  2.444314e+03 0.0 0.0 9.0
#pdf 1 21 2.886046e-01 5.087207e-01 5000.0 1.000729e-01 1.499166e-02
</event>
<event>
4 7 1.0 5000.0 7.905138e-03 7.739137e-02
 1 -1 0 0 101   0  0.000000e+00  0.000000e+00  4.717426e+03  4.717426e+03 0.0 0.0 9.0
21 -1 0 0 103 101  0.000000e+00  0.000000e+00 -1.326896e+03  1.326896e+03 0.0 0.0 9.0
 1  1 1 2 103   0 -1.278728e+03 -1.810445e+03  3.097039e+03  3.808478e+03 0.0047 0.0 9.0
22  1 1 2   0   0  1.278728e+03  1.810445e+03  2.934914e+02  2.235843e+03 0.0 0.0 9.0
#pdf 1 21 7.257578e-01 2.041378e-01 5000.0 5.318636e-04 1.688870e-01
</event>
<event>
4 7 1.0 5000.0 7.905138e-03 7.739137e-02
21 -1 0 0 103 101  0.000000e+00  0.000000e+00  2.978930e+03  2.978930e+03 0.0 0.0 9.0
 1 -1 0 0 101   0  0.000000e+00  0.000000e+00 -2.266098e+03  2.266098e+03 0.0 0.0 9.0
22  1 1 2   0   0 -1.498457e+03 -1.543701e+03  1.826823e+03  2.822352e+03 0.0 0.0 9.0
 1  1 1 2 103   0  1.498457e+03  1.543701e+03 -1.113991e+03  2.422677e+03 0.0047 0.0 9.0
#pdf 21 1 4.582970e-01 3.486305e-01 5000.0 4.946531e-03 1.985145e-02
</event>
<event>
4 7 1.0 5000.0 7.905138e-03 7.739137e-02
21 -1 0 0 103 101  0.000000e+00  0.000000e+00  3.744186e+03  3.744186e+03 0.0 0.0 9.0
 1 -1 0 0 101   0  0.000000e+00  0.000000e+00 -1.488949e+03  1.488949e+03 0.0 0.0 9.0
 1  1 1 2 103   0  1.715027e+03 -1.377651e+03  1.771160e+02  2.206946e+03 0.0047 0.0 9.0
22  1 1 2   0   0 -1.715027e+03  1.377651e+03  2.078120e+03  3.026190e+03 0.0 0.0 9.0
#pdf 21 1 5.760286e-01 2.290692e-01 5000.0 9.341468e-04 8.664800e-02
</event>
<event>
4 7 1.0 5000.0 7.905138e-03 7.739137e-02
 1 -1 0 0 101   0  0.000000e+00  0.000000e+00  2.667758e+03  2.667758e+03 0.0 0.0 9.0
21 -1 0 0 103 101  0.000000e+00  0.000000e+00 -2.312275e+03  2.312275e+03 0.0 0.0 9.0
22  1 1 2   0   0  1.850599e+03 -3.720945e+02 -1.440518e+03  2.374503e+03 0.0 0.0 9.0
 1  1 1 2 103   0 -1.850599e+03  3.720945e+02  1.796001e+03  2.605530e+03 0.0047 0.0 9.0
#pdf 1 21 4.104243e-01 3.557347e-01 5000.0 3.935417e-02 6.166176e-02
</event>
<event>
4 7 1.0 5000.0 7.905138e-03 7.739137e-02
21 -1 0 0 103 101  0.000000e+00  0.000000e+00  1.749560e+03  1.749560e+03 0.0 0.0 9.0
 1 -1 0 0 101   0  0.000000e+00  0.000000e+00 -3.482781e+03  3.482781e+03 0.0 0.0 9.0
 1  1 1 2 103   0  1.603248e+03  9.580000e+02 -2.577240e+03  3.182819e+03 0.0047 0.0 9.0
22  1 1 2   0   0 -1.603248e+03 -9.580000e+02  8.440195e+02  2.049522e+03 0.0 0.0 9.0
#pdf 21 1 2.691631e-01 5.358124e-01 5000.0 5.258430e-02 1.700573e-03
</event>
<event>
4 7 1.0 5000.0 7.905138e-03 7.739137e-02
21 -1 0 0 103 101  0.000000e+00  0.000000e+00  3.132830e+03  3.132830e+03 0.0 0.0 9.0
 1 -1 0 0 101   0  0.000000e+00  0.000000e+00 -1.994396e+03  1.994396e+03 0.0 0.0 9.0
 1  1 1 2 103   0 -1.600866e+03  1.904150e+03  3.189494e+02  2.508045e+03 0.0047 0.0 9.0
22  1 1 2   0   0  1.600866e+03 -1.904150e+03  8.194845e+02  2.619182e+03 0.0 0.0 9.0
#pdf 21 1 4.819739e-01 3.068302e-01 5000.0 3.604489e-03 3.316401e-02
</event>
<event>
4 7 1.0 5000.0 7.905138e-03 7.739137e-02
21 -1 0 0 103 101  0.000000e+00  0.000000e+00  1.575740e+03  1.575740e+03 0.0 0.0 9.0
 1 -1 0 0 101   0  0.000000e+00  0.000000e+00 -2.924986e+03  2.924986e+03 0.0 0.0 9.0
22  1 1 2   0   0 -1.198493e+03 -1.694470e+03 -1.250092e+03  2.422879e+03 0.0 0.0 9.0
 1  1 1 2 103   0  1.198493e+03  1.694470e+03 -9.915438e+01  2.077847e+03 0.0047 0.0 9.0
#pdf 21 1 2.424215e-01 4.499979e-01 5000.0 7.334374e-02 5.517424e-03
</event>
<event>
4 7 1.0 5000.0 7.905138e-03 7.739137e-02
 1 -1 0 0 101   0  0.000000e+00  0.000000e+00  1.943045e+03  1.943045e+03 0.0 0.0 9.0
21 -1 0 0 103 101  0.000000e+00  0.000000e+00 -3.521440e+03  3.521440e+03 0.0 0.0 9.0
 1  1 1 2 103   0  4.644847e+02  1.280400e+03  1.543421e+03  2.058475e+03 0.0047 0.0 9.0
22  1 1 2   0   0 -4.644847e+02 -1.280400e+03 -3.121816e+03  3.406010e+03 0.0 0.0 9.0
#pdf 1 21 2.989300e-01 5.417600e-01 5000.0 9.328816e-02 1.024377e-02
</event>
<event>
4 7 1.0 5000.0 7.905138e-03 7.739137e-02
21 -1 0 0 103 101  0.000000e+00  0.000000e+00  3.270096e+03  3.270096e+03 0.0 0.0 9.0
 1 -1 0 0 101   0  0.000000e+00  0.000000e+00 -1.923775e+03  1.923775e+03 0.0 0.0 9.0
22  1 1 2   0   0  8.420366e+02 -2.360094e+03  5.604188e+02  2.567711e+03 0.0 0.0 9.0
 1  1 1 2 103   0 -8.420366e+02  2.360094e+03  7.859023e+02  2.626160e+03 0.0047 0.0 9.0
#pdf 21 1 5.030917e-01 2.959654e-01 5000.0 2.700178e-03 3.787966e-02
</event>
<event>
4 7 1.0 5000.0 7.905138e-03 7.739137e-02
 1 -1 0 0 101   0  0.000000e+00  0.000000e+00  2.410762e+03  2.410762e+03 0.0 0.0 9.0
21 -1 0 0 103 101  0.000000e+00  0.000000e+00 -2.700367e+03  2.700367e+03 0.0 0.0 9.0
 1  1 1 2 103   0 -2.189947e+03  1.135725e+03  5.075548e+02  2.518601e+03 0.0047 0.0 9.0
22  1 1 2   0   0  2.189947e+03 -1.135725e+03 -7.971598e+02  2.592528e+03 0.0 0.0 9.0
#pdf 1 21 3.708864e-01 4.154410e-01 5000.0 5.473494e-02 3.765813e-02
</event>
<event>
4 7 1.0 5000.0 7.905138e-03 7.739137e-02
21 -1 0 0 103 101  0.000000e+00  0.000000e+00  3.047620e+03  3.047620e+03 0.0 0.0 9.0
 1 -1 0 0 101   0  0.000000e+00  0.000000e+00 -2.040574e+03  2.040574e+03 0.0 0.0 9.0
22  1 1 2   0   0  1.814360e+03 -1.451732e+03 -4.199886e+02  2.361317e+03 0.0 0.0 9.0
 1  1 1 2 103   0 -1.814360e+03  1.451732e+03  1.427035e+03  2.726877e+03 0.0047 0.0 9.0
#pdf 21 1 4.688647e-01 3.139344e-01 5000.0 4.299301e-03 3.037947e-02
</event>
<event>
4 7 1.0 5000.0 7.905138e-03 7.739137e-02
21 -1 0 0 103 101  0.000000e+00  0.000000e+00  2.054022e+03  2.054022e+03 0.0 0.0 9.0
 1 -1 0 0 101   0  0.000000e+00  0.000000e+00 -3.270952e+03  3.270952e+03 0.0 0.0 9.0
22  1 1 2   0   0  3.566479e+02 -2.532981e+03 -1.782530e+02  2.564169e+03 0.0 0.0 9.0
 1  1 1 2 103   0 -3.566479e+02  2.532981e+03 -1.038678e+03  2.760804e+03 0.0047 0.0 9.0
#pdf 21 1 3.160033e-01 5.032234e-01 5000.0 2.961193e-02 2.695256e-03
</event>
<event>
4 7 1.0 5000.0 7.905138e-03 7.739137e-02
21 -1 0 0 103 101  0.000000e+00  0.000000e+00  3.314913e+03  3.314913e+03 0.0 0.0 9.0
 1 -1 0 0 101   0  0.000000e+00  0.000000e+00 -1.827557e+03  1.827557e+03 0.0 0.0 9.0
 1  1 1 2 103   0  6.520841e+02  2.363400e+03  9.709236e+02  2.636961e+03 0.0047 0.0 9.0
22  1 1 2   0   0 -6.520841e+02 -2.363400e+03  5.164318e+02  2.505509e+03 0.0 0.0 9.0
#pdf 21 1 5.099866e-01 2.811627e-01 5000.0 2.453898e-03 4.536976e-02
</event>
<event>
4 7 1.0 5000.0 7.905138e-03 7.739137e-02
21 -1 0 0 103 101  0.000000e+00  0.000000e+00  3.525304e+03  3.525304e+03 0.0 0.0 9.0
 1 -1 0 0 101   0  0.000000e+00  0.000000e+00 -2.130075e+03  2.130075e+03 0.0 0.0 9.0
22  1 1 2   0   0  6.431604e+02 -5.923816e+02 -1.982256e+03  2.166544e+03 0.0 0.0 9.0
 1  1 1 2 103   0 -6.431604e+02  5.923816e+02  3.377485e+03  3.488836e+03 0.0047 0.0 9.0
#pdf 21 1 5.423544e-01 3.277039e-01 5000.0 1.546279e-03 2.565713e-02
</event>
<event>
4 7 1.0 5000.0 7.905138e-03 7.739137e-02
21 -1 0 0 103 101  0.000000e+00  0.000000e+00  3.496758e+03  3.496758e+03 0.0 0.0 9.0
 1 -1 0 0 101   0  0.000000e+00  0.000000e+00 -1.761185e+03  1.761185e+03 0.0 0.0 9.0
22  1 1 2   0   0  2.343662e+03 -2.537756e+02  4.631752e+01  2.357816e+03 0.0 0.0 9.0
 1  1 1 2 103   0 -2.343662e+03  2.537756e+02  1.689255e+03  2.900127e+03 0.0047 0.0 9.0
#pdf 21 1 5.379627e-01 2.709516e-01 5000.0 1.647791e-03 5.143997e-02
</event>
<event>
4 7 1.0 5000.0 7.905138e-03 7.739137e-02
 1 -1 0 0 101   0  0.000000e+00  0.000000e+00  3.202908e+03  3.202908e+03 0.0 0.0 9.0
21 -1 0 0 103 101  0.000000e+00  0.000000e+00 -1.806342e+03  1.806342e+03 0.0 0.0 9.0
 1  1 1 2 103   0  6.908671e+02  5.374170e+02 -1.634626e+03  1.854216e+03 0.0047 0.0 9.0
22  1 1 2   0   0 -6.908671e+02 -5.374170e+02  3.031192e+03  3.155034e+03 0.0 0.0 9.0
#pdf 1 21 4.927551e-01 2.778988e-01 5000.0 1.781867e-02 1.074482e-01
</event>
<event>
4 7 1.0 5000.0 7.905138e-03 7.739137e-02
21 -1 0 0 103 101  0.000000e+00  0.000000e+00  3.449789e+03  3.449789e+03 0.0 0.0 9.0
 1 -1 0 0 101   0  0.000000e+00  0.000000e+00 -1.809361e+03  1.809361e+03 0.0 0.0 9.0
 1  1 1 2 103   0  2.107478e+03 -6.155991e+02  2.075081e+03  3.020992e+03 0.0047 0.0 9.0
22  1 1 2   0   0 -2.107478e+03  6.155991e+02 -4.346534e+02  2.238158e+03 0.0 0.0 9.0
#pdf 21 1 5.307367e-01 2.783632e-01 5000.0 1.830661e-03 4.696167e-02
</event>
<event>
4 7 1.0 5000.0 7.905138e-03 7.739137e-02
 1 -1 0 0 101   0  0.000000e+00  0.000000e+00  2.461727e+03  2.461727e+03 0.0 0.0 9.0
21 -1 0 0 103 101  0.000000e+00  0.000000e+00 -2.546886e+03  2.546886e+03 0.0 0.0 9.0
22  1 1 2   0   0  1.690110e+03 -2.960086e+02 -1.866479e+03  2.535318e+03 0.0 0.0 9.0
 1  1 1 2 103   0 -1.690110e+03  2.960086e+02  1.781320e+03  2.473296e+03 0.0047 0.0 9.0
#pdf 1 21 3.787273e-01 3.918287e-01 5000.0 5.140303e-02 4.613578e-02
</event>
<event>
4 7 1.0 5000.0 7.905138e-03 7.739137e-02
21 -1 0 0 103 101  0.000000e+00  0.000000e+00  2.950092e+03  2.950092e+03 0.0 0.0 9.0
 1 -1 0 0 101   0  0.000000e+00  0.000000e+00 -2.098834e+03  2.098834e+03 0.0 0.0 9.0
 1  1 1 2 103   0 -2.357502e+03 -4.684502e+02 -2.275335e+02  2.414339e+03 0.0047 0.0 9.0
22  1 1 2   0   0  2.357502e+03  4.684502e+02  1.078792e+03  2.634587e+03 0.0 0.0 9.0
#pdf 21 1 4.538603e-01 3.228975e-01 5000.0 5.246540e-03 2.721039e-02
</event>
<event>
4 7 1.0 5000.0 7.905138e-03 7.739137e-02
21 -1 0 0 103 101  0.000000e+00  0.000000e+00  3.540750e+03  3.540750e+03 0.0 0.0 9.0
 1 -1 0 0 101   0  0.000000e+00  0.000000e+00 -1.791611e+03  1.791611e+03 0.0 0.0 9.0
 1  1 1 2 103   0 -5.266073e+02 -1.968780e+03 -6.920580e+02  2.152291e+03 0.0047 0.0 9.0
22  1 1 2   0   0  5.266073e+02  1.968780e+03  2.441196e+03  3.180071e+03 0.0 0.0 9.0
#pdf 21 1 5.447307e-01 2.756325e-01 5000.0 1.493928e-03 4.856487e-02
</event>
<event>
4 7 1.0 5000.0 7.905138e-03 7.739137e-02
21 -1 0 0 103 101  0.000000e+00  0.000000e+00  2.422421e+03  2.422421e+03 0.0 0.0 9.0
 1 -1 0 0 101   0  0.000000e+00  0.000000e+00 -2.581511e+03  2.581511e+03 0.0 0.0 9.0
 1  1 1 2 103   0  1.352537e+03 -1.121695e+03 -1.859757e+03  2.558564e+03 0.0047 0.0 9.0
22  1 1 2   0   0 -1.352537e+03  1.121695e+03  1.700667e+03  2.445367e+03 0.0 0.0 9.0
#pdf 21 1 3.726801e-01 3.971555e-01 5000.0 1.474404e-02 1.086126e-02
</event>
<event>
4 7 1.0 5000.0 7.905138e-03 7.739137e-02
 1 -1 0 0 101   0  0.000000e+00  0.000000e+00  3.120338e+03  3.120338e+03 0.0 0.0 9.0
21 -1 0 0 103 101  0.000000e+00  0.000000e+00 -2.035502e+03  2.035502e+03 0.0 0.0 9.0
22  1 1 2   0   0 -1.915435e+03 -1.619433e+02  2.209567e+03  2.928703e+03 0.0 0.0 9.0
 1  1 1 2 103   0  1.915435e+03  1.619433e+02 -1.124731e+03  2.227136e+03 0.0047 0.0 9.0
#pdf 1 21 4.800520e-01 3.131541e-01 5000.0 2.034612e-02 8.448585e-02
</event>
<event>
4 7 1.0 5000.0 7.905138e-03 7.739137e-02
 1 -1 0 0 101   0  0.000000e+00  0.000000e+00  1.953717e+03  1.953717e+03 0.0 0.0 9.0
21 -1 0 0 103 101  0.000000e+00  0.000000e+00 -3.351617e+03  3.351617e+03 0.0 0.0 9.0
 1  1 1 2 103   0 -8.784120e+02  7.027222e+01 -3.189364e+03  3.308865e+03 0.0047 0.0 9.0
22  1 1 2   0   0  8.784120e+02 -7.027222e+01  1.791463e+03  1.996469e+03 0.0 0.0 9.0
#pdf 1 21 3.005718e-01 5.156334e-01 5000.0 9.223747e-02 1.388114e-02
</event>
<event>
4 7 1.0 5000.0 7.905138e-03 7.739137e-02
21 -1 0 0 103 101  0.000000e+00  0.000000e+00  2.503642e+03  2.503642e+03 0.0 0.0 9.0
 1 -1 0 0 101   0  0.000000e+00  0.000000e+00 -2.513704e+03  2.513704e+03 0.0 0.0 9.0
 1  1 1 2 103   0  1.085712e+03 -2.252359e+03  1.987483e+02  2.508264e+03 0.0047 0.0 9.0
22  1 1 2   0   0 -1.085712e+03  2.252359e+03 -2.088102e+02  2.509082e+03 0.0 0.0 9.0
#pdf 21 1 3.851757e-01 3.867237e-01 5000.0 1.262881e-02 1.238474e-02
</event>
<event>
4 7 1.0 5000.0 7.905138e-03 7.739137e-02
 1 -1 0 0 101   0  0.000000e+00  0.000000e+00  2.408694e+03  2.408694e+03 0.0 0.0 9.0
21 -1 0 0 103 101  0.000000e+00  0.000000e+00 -2.480185e+03  2.480185e+03 0.0 0.0 9.0
 1  1 1 2 103   0  6.176578e+02  5.180800e+02 -2.343393e+03  2.478184e+03 0.0047 0.0 9.0
22  1 1 2   0   0 -6.176578e+02 -5.180800e+02  2.271902e+03  2.410694e+03 0.0 0.0 9.0
#pdf 1 21 3.705683e-01 3.815669e-01 5000.0 5.487399e-02 5.022698e-02
</event>
<event>
4 7 1.0 5000.0 7.905138e-03 7.739137e-02
21 -1 0 0 103 101  0.000000e+00  0.000000e+00  3.785580e+03  3.785580e+03 0.0 0.0 9.0
 1 -1 0 0 101   0  0.000000e+00  0.000000e+00 -1.689906e+03  1.689906e+03 0.0 0.0 9.0
22  1 1 2   0   0 -5.096756e+02 -1.919214e+03  2.743515e+03  3.386743e+03 0.0 0.0 9.0
 1  1 1 2 103   0  5.096756e+02  1.919214e+03 -6.478403e+02  2.088743e+03 0.0047 0.0 9.0
#pdf 21 1 5.823970e-01 2.599855e-01 5000.0 8.468663e-04 5.891865e-02
</event>
<event>
4 7 1.0 5000.0 7.905138e-03 7.739137e-02
21 -1 0 0 103 101  0.000000e+00  0.000000e+00  2.438362e+03  2.438362e+03 0.0 0.0 9.0
 1 -1 0 0 101   0  0.000000e+00  0.000000e+00 -2.571935e+03  2.571935e+03 0.0 0.0 9.0
 1  1 1 2 103   0  2.313995e+03  2.876289e+02  8.467767e+02  2.480793e+03 0.0047 0.0 9.0
22  1 1 2   0   0 -2.313995e+03 -2.876289e+02 -9.803492e+02  2.529504e+03 0.0 0.0 9.0
#pdf 21 1 3.751326e-01 3.956822e-01 5000.0 1.431101e-02 1.106414e-02
</event>
<event>
4 7 1.0 5000.0 7.905138e-03 7.739137e-02
 1 -1 0 0 101   0  0.000000e+00  0.000000e+00  2.697634e+03  2.697634e+03 0.0 0.0 9.0
21 -1 0 0 103 101  0.000000e+00  0.000000e+00 -2.236160e+03  2.236160e+03 0.0 0.0 9.0
22  1 1 2   0   0 -8.330056e+02 -2.290165e+03  5.380038e+02  2.495637e+03 0.0 0.0 9.0
 1  1 1 2 103   0  8.330056e+02  2.290165e+03 -7.653034e+01  2.438157e+03 0.0047 0.0 9.0
#pdf 1 21 4.150206e-01 3.440247e-01 5000.0 3.779817e-02 6.743503e-02
</event>
<event>
4 7 1.0 5000.0 7.905138e-03 7.739137e-02
 1 -1 0 0 101   0  0.000000e+00  0.000000e+00  2.807132e+03  2.807132e+03 0.0 0.0 9.0
21 -1 0 0 103 101  0.000000e+00  0.000000e+00 -2.225997e+03  2.225997e+03 0.0 0.0 9.0
22  1 1 2   0   0 -1.926666e+03  1.902499e+02  1.882489e+03  2.700371e+03 0.0 0.0 9.0
 1  1 1 2 103   0  1.926666e+03 -1.902499e+02 -1.301354e+03  2.332758e+03 0.0047 0.0 9.0
#pdf 1 21 4.318665e-01 3.424610e-01 5000.0 3.248775e-02 6.823295e-02
</event>
<event>
4 7 1.0 5000.0 7.905138e-03 7.739137e-02
 1 -1 0 0 101   0  0.000000e+00  0.000000e+00  2.932255e+03  2.932255e+03 0.0 0.0 9.0
21 -1 0 0 103 101  0.000000e+00  0.000000e+00 -2.201557e+03  2.201557e+03 0.0 0.0 9.0
22  1 1 2   0   0 -1.661438e+03  8.144670e+02  2.124463e+03  2.817282e+03 0.0 0.0 9.0
 1  1 1 2 103   0  1.661438e+03 -8.144670e+02 -1.393766e+03  2.316531e+03 0.0047 0.0 9.0
#pdf 1 21 4.511161e-01 3.387011e-01 5000.0 2.712360e-02 7.017904e-02
</event>
<event>
4 7 1.0 5000.0 7.905138e-03 7.739137e-02
21 -1 0 0 103 101  0.000000e+00  0.000000e+00  2.336768e+03  2.336768e+03 0.0 0.0 9.0
 1 -1 0 0 101   0  0.000000e+00  0.000000e+00 -2.858113e+03  2.858113e+03 0.0 0.0 9.0
22  1 1 2   0   0  2.175861e+03 -1.358562e+03 -5.764095e+02  2.629127e+03 0.0 0.0 9.0
 1  1 1 2 103   0 -2.175861e+03  1.358562e+03  5.506416e+01  2.565754e+03 0.0047 0.0 9.0
#pdf 21 1 3.595027e-01 4.397097e-01 5000.0 1.735382e-02 6.314325e-03
</event>
<event>
4 7 1.0 5000.0 7.905138e-03 7.739137e-02
 1 -1 0 0 101   0  0.000000e+00  0.000000e+00  3.097108e+03  3.097108e+03 0.0 0.0 9.0
21 -1 0 0 103 101  0.000000e+00  0.000000e+00 -1.766603e+03  1.766603e+03 0.0 0.0 9.0
22  1 1 2   0   0  1.862919e+02 -5.142224e+02  3.029696e+03  3.078667e+03 0.0 0.0 9.0
 1  1 1 2 103   0 -1.862919e+02  5.142224e+02 -1.699192e+03  1.785044e+03 0.0047 0.0 9.0
#pdf 1 21 4.764781e-01 2.717851e-01 5000.0 2.110530e-02 1.118333e-01
</event>
<event>
4 7 1.0 5000.0 7.905138e-03 7.739137e-02
 1 -1 0 0 101   0  0.000000e+00  0.000000e+00  1.736232e+03  1.736232e+03 0.0 0.0 9.0
21 -1 0 0 103 101  0.000000e+00  0.000000e+00 -3.717976e+03  3.717976e+03 0.0 0.0 9.0
 1  1 1 2 103   0  2.484183e+03 -3.169178e+01 -1.561976e+03  2.934610e+03 0.0047 0.0 9.0
22  1 1 2   0   0 -2.484183e+03  3.169178e+01 -4.197676e+02  2.519598e+03 0.0 0.0 9.0
#pdf 1 21 2.671126e-01 5.719963e-01 5000.0 1.152669e-01 7.011056e-03
</event>
<event>
4 7 1.0 5000.0 7.905138e-03 7.739137e-02
 1 -1 0 0 101   0  0.000000e+00  0.000000e+00  3.064234e+03  3.064234e+03 0.0 0.0 9.0
21 -1 0 0 103 101  0.000000e+00  0.000000e+00 -2.039406e+03  2.039406e+03 0.0 0.0 9.0
 1  1 1 2 103   0  1.727047e+03  5.515725e+02  2.269332e+03  2.904615e+03 0.0047 0.0 9.0
22  1 1 2   0   0 -1.727047e+03 -5.515725e+02 -1.244504e+03  2.199025e+03 0.0 0.0 9.0
#pdf 1 21 4.714206e-01 3.137548e-01 5000.0 2.221605e-02 8.412685e-02
</event>
<event>
4 7 1.0 5000.0 7.905138e-03 7.739137e-02
 1 -1 0 0 101   0  0.000000e+00  0.000000e+00  2.449639e+03  2.449639e+03 0.0 0.0 9.0
21 -1 0 0 103 101  0.000000e+00  0.000000e+00 -2.843986e+03  2.843986e+03 0.0 0.0 9.0
22  1 1 2   0   0  1.813568e+03  1.434207e+03  1.079464e+03  2.551710e+03 0.0 0.0 9.0
 1  1 1 2 103   0 -1.813568e+03 -1.434207e+03 -1.473811e+03  2.741915e+03 0.0047 0.0 9.0
#pdf 1 21 3.768676e-01 4.375363e-01 5000.0 5.218221e-02 3.083919e-02
</event>
<event>
4 7 1.0 5000.0 7.905138e-03 7.739137e-02
21 -1 0 0 103 101  0.000000e+00  0.000000e+00  1.608726e+03  1.608726e+03 0.0 0.0 9.0
 1 -1 0 0 101   0  0.000000e+00  0.000000e+00 -3.829275e+03  3.829275e+03 0.0 0.0 9.0
 1  1 1 2 103   0  3.978854e+02 -1.304375e+03 -3.382084e+03  3.646670e+03 0.0047 0.0 9.0
22  1 1 2   0   0 -3.978854e+02  1.304375e+03  1.161534e+03  1.791332e+03 0.0 0.0 9.0
#pdf 21 1 2.474963e-01 5.891193e-01 5000.0 6.880995e-02 7.626033e-04
</event>
<event>
4 7 1.0 5000.0 7.905138e-03 7.739137e-02
 1 -1 0 0 101   0  0.000000e+00  0.000000e+00  1.638494e+03  1.638494e+03 0.0 0.0 9.0
21 -1 0 0 103 101  0.000000e+00  0.000000e+00 -2.835276e+03  2.835276e+03 0.0 0.0 9.0
22  1 1 2   0   0 -4.861649e+02 -9.253013e+02 -2.554638e+03  2.760202e+03 0.0 0.0 9.0
 1  1 1 2 103   0  4.861649e+02  9.253013e+02  1.357857e+03  1.713568e+03 0.0047 0.0 9.0
#pdf 1 21 2.520760e-01 4.361963e-01 5000.0 1.268061e-01 3.122357e-02
</event>
<event>
4 7 1.0 5000.0 7.905138e-03 7.739137e-02
 1 -1 0 0 101   0  0.000000e+00  0.000000e+00  2.769625e+03  2.769625e+03 0.0 0.0 9.0
21 -1 0 0 103 101  0.000000e+00  0.000000e+00 -2.243803e+03  2.243803e+03 0.0 0.0 9.0
 1  1 1 2 103   0  2.695407e+02 -4.788794e+02  2.707963e+03  2.763157e+03 0.0047 0.0 9.0
22  1 1 2   0   0 -2.695407e+02  4.788794e+02 -2.182141e+03  2.250270e+03 0.0 0.0 9.0
#pdf 1 21 4.260961e-01 3.452004e-01 5000.0 3.423611e-02 6.683937e-02
</event>
<event>
4 7 1.0 5000.0 7.905138e-03 7.739137e-02
21 -1 0 0 103 101  0.000000e+00  0.000000e+00  1.655865e+03  1.655865e+03 0.0 0.0 9.0
 1 -1 0 0 101   0  0.000000e+00  0.000000e+00 -3.632135e+03  3.632135e+03 0.0 0.0 9.0
22  1 1 2   0   0  7.479183e+02 -1.702815e+02  1.523207e+03  1.705443e+03 0.0 0.0 9.0
 1  1 1 2 103   0 -7.479183e+02  1.702815e+02 -3.499477e+03  3.582557e+03 0.0047 0.0 9.0
#pdf 21 1 2.547485e-01 5.587901e-01 5000.0 6.291527e-02 1.214966e-03
</event>
<event>
4 7 1.0 5000.0 7.905138e-03 7.739137e-02
21 -1 0 0 103 101  0.000000e+00  0.000000e+00  1.795359e+03  1.795359e+03 0.0 0.0 9.0
 1 -1 0 0 101   0  0.000000e+00  0.000000e+00 -3.484880e+03  3.484880e+03 0.0 0.0 9.0
22  1 1 2   0   0  1.641711e+03 -7.386153e+02  9.882225e+02  2.053619e+03 0.0 0.0 9.0
 1  1 1 2 103   0 -1.641711e+03  7.386153e+02 -2.677743e+03  3.226620e+03 0.0047 0.0 9.0
#pdf 21 1 2.762091e-01 5.361354e-01 5000.0 4.822204e-02 1.692494e-03
</event>
<event>
4 7 1.0 5000.0 7.905138e-03 7.739137e-02
21 -1 0 0 103 101  0.000000e+00  0.000000e+00  1.827660e+03  1.827660e+03 0.0 0.0 9.0
 1 -1 0 0 101   0  0.000000e+00  0.000000e+00 -3.428624e+03  3.428624e+03 0.0 0.0 9.0
22  1 1 2   0   0  1.617516e+02  1.625905e+03  1.190599e+03  2.021697e+03 0.0 0.0 9.0
 1  1 1 2 103   0 -1.617516e+02 -1.625905e+03 -2.791563e+03  3.234588e+03 0.0047 0.0 9.0
#pdf 21 1 2.811785e-01 5.274807e-01 5000.0 4.536090e-02 1.917671e-03
</event>
<event>
4 7 1.0 5000.0 7.905138e-03 7.739137e-02
21 -1 0 0 103 101  0.000000e+00  0.000000e+00  2.328489e+03  2.328489e+03 0.0 0.0 9.0
 1 -1 0 0 101   0  0.000000e+00  0.000000e+00 -2.709236e+03  2.709236e+03 0.0 0.0 9.0
22  1 1 2   0   0 -7.482188e+02 -2.148630e+03 -1.257373e+03  2.599505e+03 0.0 0.0 9.0
 1  1 1 2 103   0  7.482188e+02  2.148630e+03  8.766256e+02  2.438219e+03 0.0047 0.0 9.0
#pdf 21 1 3.582290e-01 4.168055e-01 5000.0 1.762693e-02 8.467951e-03
</event>
<event>
4 7 1.0 5000.0 7.905138e-03 7.739137e-02
 1 -1 0 0 101   0  0.000000e+00  0.000000e+00  1.645516e+03  1.645516e+03 0.0 0.0 9.0
21 -1 0 0 103 101  0.000000e+00  0.000000e+00 -3.835376e+03  3.835376e+03 0.0 0.0 9.0
22  1 1 2   0   0 -2.090051e+03  1.161152e+03 -1.936082e+03  3.076524e+03 0.0 0.0 9.0
 1  1 1 2 103   0  2.090051e+03 -1.161152e+03 -2.537777e+02  2.404369e+03 0.0047 0.0 9.0
#pdf 1 21 2.531564e-01 5.900579e-01 5000.0 1.259511e-01 5.503302e-03
</event>
<event>
4 7 1.0 5000.0 7.905138e-03 7.739137e-02
 1 -1 0 0 101   0  0.000000e+00  0.000000e+00  3.174085e+03  3.174085e+03 0.0 0.0 9.0
21 -1 0 0 103 101  0.000000e+00  0.000000e+00 -1.948301e+03  1.948301e+03 0.0 0.0 9.0
22  1 1 2   0   0 -2.567075e+01  2.040024e+03 -8.515270e+02  2.210759e+03 0.0 0.0 9.0
 1  1 1 2 103   0  2.567075e+01 -2.040024e+03  2.077310e+03  2.911627e+03 0.0047 0.0 9.0
#pdf 1 21 4.883207e-01 2.997387e-01 5000.0 1.867160e-02 9.276858e-02
</event>
<event>
4 7 1.0 5000.0 7.905138e-03 7.739137e-02
 1 -1 0 0 101   0  0.000000e+00  0.000000e+00  2.944892e+03  2.944892e+03 0.0 0.0 9.0
21 -1 0 0 103 101  0.000000e+00  0.000000e+00 -2.047614e+03  2.047614e+03 0.0 0.0 9.0
22  1 1 2   0   0 -3.712311e+02 -2.229768e+03 -5.265759e+02  2.320982e+03 0.0 0.0 9.0
 1  1 1 2 103   0  3.712311e+02  2.229768e+03  1.423854e+03  2.671523e+03 0.0047 0.0 9.0
#pdf 1 21 4.530603e-01 3.150175e-01 5000.0 2.662253e-02 8.337612e-02
</event>
<event>
4 7 1.0 5000.0 7.905138e-03 7.739137e-02
 1 -1 0 0 101   0  0.000000e+00  0.000000e+00  2.460492e+03  2.460492e+03 0.0 0.0 9.0
21 -1 0 0 103 101  0.000000e+00  0.000000e+00 -2.541514e+03  2.541514e+03 0.0 0.0 9.0
 1  1 1 2 103   0  8.723915e+02  1.570524e+03  1.699190e+03  2.472824e+03 0.0047 0.0 9.0
22  1 1 2   0   0 -8.723915e+02 -1.570524e+03 -1.780212e+03  2.529183e+03 0.0 0.0 9.0
#pdf 1 21 3.785373e-01 3.910022e-01 5000.0 5.148231e-02 4.645541e-02
</event>
<event>
4 7 1.0 5000.0 7.905138e-03 7.739137e-02
 1 -1 0 0 101   0  0.000000e+00  0.000000e+00  1.767981e+03  1.767981e+03 0.0 0.0 9.0
21 -1 0 0 103 101  0.000000e+00  0.000000e+00 -3.490248e+03  3.490248e+03 0.0 0.0 9.0
 1  1 1 2 103   0 -9.069134e+02 -9.170267e+02 -3.108112e+03  3.365084e+03 0.0047 0.0 9.0
22  1 1 2   0   0  9.069134e+02  9.170267e+02  1.385845e+03  1.893145e+03 0.0 0.0 9.0
#pdf 1 21 2.719970e-01 5.369612e-01 5000.0 1.116792e-01 1.084798e-02
</event>
<event>
4 7 1.0 5000.0 7.905138e-03 7.739137e-02
21 -1 0 0 103 101  0.000000e+00  0.000000e+00  1.299040e+03  1.299040e+03 0.0 0.0 9.0
 1 -1 0 0 101   0  0.000000e+00  0.000000e+00 -3.523787e+03  3.523787e+03 0.0 0.0 9.0
22  1 1 2   0   0  8.552589e+02 -2.935231e+02 -3.297843e+03  3.419560e+03 0.0 0.0 9.0
 1  1 1 2 103   0 -8.552589e+02  2.935231e+02  1.073096e+03  1.403267e+03 0.0047 0.0 9.0
#pdf 21 1 1.998523e-01 5.421210e-01 5000.0 1.260589e-01 1.551501e-03
</event>
<event>
4 7 1.0 5000.0 7.905138e-03 7.739137e-02
21 -1 0 0 103 101  0.000000e+00  0.000000e+00  3.393661e+03  3.393661e+03 0.0 0.0 9.0
 1 -1 0 0 101   0  0.000000e+00  0.000000e+00 -1.809724e+03  1.809724e+03 0.0 0.0 9.0
 1  1 1 2 103   0 -9.050720e+02 -5.854339e+02  3.134671e+03  3.314823e+03 0.0047 0.0 9.0
22  1 1 2   0   0  9.050720e+02  5.854339e+02 -1.550735e+03  1.888562e+03 0.0 0.0 9.0
#pdf 21 1 5.221017e-01 2.784191e-01 5000.0 2.069264e-03 4.692937e-02
</event>
<event>
4 7 1.0 5000.0 7.905138e-03 7.739137e-02
21 -1 0 0 103 101  0.000000e+00  0.000000e+00  3.954388e+03  3.954388e+03 0.0 0.0 9.0
 1 -1 0 0 101   0  0.000000e+00  0.000000e+00 -1.652266e+03  1.652266e+03 0.0 0.0 9.0
22  1 1 2   0   0  5.526432e+02  1.358891e+03 -1.144641e+03  1.860700e+03 0.0 0.0 9.0
 1  1 1 2 103   0 -5.526432e+02 -1.358891e+03  3.446763e+03  3.745954e+03 0.0047 0.0 9.0
#pdf 21 1 6.083674e-01 2.541948e-01 5000.0 5.609967e-04 6.335217e-02
</event>
<event>
4 7 1.0 5000.0 7.905138e-03 7.739137e-02
21 -1 0 0 103 101  0.000000e+00  0.000000e+00  2.611130e+03  2.611130e+03 0.0 0.0 9.0
 1 -1 0 0 101   0  0.000000e+00  0.000000e+00 -2.430106e+03  2.430106e+03 0.0 0.0 9.0
 1  1 1 2 103   0 -1.379275e+03  1.526790e+03 -1.363641e+03  2.468401e+03 0.0047 0.0 9.0
22  1 1 2   0   0  1.379275e+03 -1.526790e+03  1.544665e+03  2.572834e+03 0.0 0.0 9.0
#pdf 21 1 4.017123e-01 3.738624e-01 5000.0 1.025634e-02 1.453435e-02
</event>
<event>
4 7 1.0 5000.0 7.905138e-03 7.739137e-02
 1 -1 0 0 101   0  0.000000e+00  0.000000e+00  3.140773e+03  3.140773e+03 0.0 0.0 9.0
21 -1 0 0 103 101  0.000000e+00  0.000000e+00 -2.021676e+03  2.021676e+03 0.0 0.0 9.0
22  1 1 2   0   0  1.579815e+02  1.415906e+03  2.688607e+03  3.042754e+03 0.0 0.0 9.0
 1  1 1 2 103   0 -1.579815e+02 -1.415906e+03 -1.569510e+03  2.119695e+03 0.0047 0.0 9.0
#pdf 1 21 4.831959e-01 3.110271e-01 5000.0 1.969615e-02 8.576604e-02
</event>
<event>
4 7 1.0 5000.0 7.905138e-03 7.739137e-02
21 -1 0 0 103 101  0.000000e+00  0.000000e+00  3.220328e+03  3.220328e+03 0.0 0.0 9.0
 1 -1 0 0 101   0  0.000000e+00  0.000000e+00 -1.949471e+03  1.949471e+03 0.0 0.0 9.0
 1  1 1 2 103   0 -2.209965e+03  6.002075e+02 -4.134894e+02  2.327051e+03 0.0047 0.0 9.0
22  1 1 2   0   0  2.209965e+03 -6.002075e+02  1.684346e+03  2.842748e+03 0.0 0.0 9.0
#pdf 21 1 4.954351e-01 2.999187e-01 5000.0 3.001445e-03 3.604751e-02
</event>
<event>
4 7 1.0 5000.0 7.905138e-03 7.739137e-02
21 -1 0 0 103 101  0.000000e+00  0.000000e+00  4.074697e+03  4.074697e+03 0.0 0.0 9.0
 1 -1 0 0 101   0  0.000000e+00  0.000000e+00 -1.754060e+03  1.754060e+03 0.0 0.0 9.0
 1  1 1 2 103   0 -1.202452e+03  2.264201e+03  1.986778e+03  3.243422e+03 0.0047 0.0 9.0
22  1 1 2   0   0  1.202452e+03 -2.264201e+03  3.338590e+02  2.585336e+03 0.0 0.0 9.0
#pdf 21 1 6.268765e-01 2.698554e-01 5000.0 4.129585e-04 5.213815e-02
</event>
<event>
4 7 1.0 5000.0 7.905138e-03 7.739137e-02
21 -1 0 0 103 101  0.000000e+00  0.000000e+00  2.561838e+03  2.561838e+03 0.0 0.0 9.0
 1 -1 0 0 101   0  0.000000e+00  0.000000e+00 -2.497480e+03  2.497480e+03 0.0 0.0 9.0
 1  1 1 2 103   0  1.583541e+03  1.933980e+03 -3.554880e+02  2.524728e+03 0.0047 0.0 9.0
22  1 1 2   0   0 -1.583541e+03 -1.933980e+03  4.198457e+02  2.534591e+03 0.0 0.0 9.0
#pdf 21 1 3.941289e-01 3.842277e-01 5000.0 1.128217e-02 1.278046e-02
</event>
<event>
4 7 1.0 5000.0 7.905138e-03 7.739137e-02
21 -1 0 0 103 101  0.000000e+00  0.000000e+00  2.778021e+03  2.778021e+03 0.0 0.0 9.0
 1 -1 0 0 101   0  0.000000e+00  0.000000e+00 -2.214697e+03  2.214697e+03 0.0 0.0 9.0
 1  1 1 2 103   0  1.695448e+02 -1.098462e+03  2.513368e+03  2.748160e+03 0.0047 0.0 9.0
22  1 1 2   0   0 -1.695448e+02  1.098462e+03 -1.950044e+03  2.244557e+03 0.0 0.0 9.0
#pdf 21 1 4.273878e-01 3.407226e-01 5000.0 7.395048e-03 2.186859e-02
</event>
<event>
4 7 1.0 5000.0 7.905138e-03 7.739137e-02
21 -1 0 0 103 101  0.000000e+00  0.000000e+00  2.432540e+03  2.432540e+03 0.0 0.0 9.0
 1 -1 0 0 101   0  0.000000e+00  0.000000e+00 -2.546679e+03  2.546679e+03 0.0 0.0 9.0
22  1 1 2   0   0  7.624910e+02 -2.885334e+02  2.295198e+03  2.435688e+03 0.0 0.0 9.0
 1  1 1 2 103   0 -7.624910e+02  2.885334e+02 -2.409337e+03  2.543531e+03 0.0047 0.0 9.0
#pdf 21 1 3.742369e-01 3.917968e-01 5000.0 1.446829e-02 1.161780e-02
</event>
<event>
4 7 1.0 5000.0 7.905138e-03 7.739137e-02
21 -1 0 0 103 101  0.000000e+00  0.000000e+00  2.957971e+03  2.957971e+03 0.0 0.0 9.0
 1 -1 0 0 101   0  0.000000e+00  0.000000e+00 -2.015794e+03  2.015794e+03 0.0 0.0 9.0
 1  1 1 2 103   0 -1.253229e+03  1.064189e+03  2.309811e+03  2.835191e+03 0.0047 0.0 9.0
22  1 1 2   0   0  1.253229e+03 -1.064189e+03 -1.367633e+03  2.138574e+03 0.0 0.0 9.0
#pdf 21 1 4.550725e-01 3.101221e-01 5000.0 5.163201e-03 3.184771e-02
</event>
<event>
4 7 1.0 5000.0 7.905138e-03 7.739137e-02
 1 -1 0 0 101   0  0.000000e+00  0.000000e+00  2.696050e+03  2.696050e+03 0.0 0.0 9.0
21 -1 0 0 103 101  0.000000e+00  0.000000e+00 -2.483056e+03  2.483056e+03 0.0 0.0 9.0
22  1 1 2   0   0 -7.035928e+02 -1.810227e+03  1.817470e+03  2.659918e+03 0.0 0.0 9.0
 1  1 1 2 103   0  7.035928e+02  1.810227e+03 -1.604475e+03  2.519188e+03 0.0047 0.0 9.0
#pdf 1 21 4.147770e-01 3.820086e-01 5000.0 3.787948e-02 5.004563e-02
</event>
<event>
4 7 1.0 5000.0 7.905138e-03 7.739137e-02
21 -1 0 0 103 101  0.000000e+00  0.000000e+00  2.038647e+03  2.038647e+03 0.0 0.0 9.0
 1 -1 0 0 101   0  0.000000e+00  0.000000e+00 -3.087613e+03  3.087613e+03 0.0 0.0 9.0
22  1 1 2   0   0 -1.679550e+03  8.664815e+02 -2.210268e+03  2.908086e+03 0.0 0.0 9.0
 1  1 1 2 103   0  1.679550e+03 -8.664815e+02  1.161302e+03  2.218175e+03 0.0047 0.0 9.0
#pdf 21 1 3.136381e-01 4.750174e-01 5000.0 3.049119e-02 3.959806e-03
</event>
<event>
4 7 1.0 5000.0 7.905138e-03 7.739137e-02
21 -1 0 0 103 101  0.000000e+00  0.000000e+00  3.403763e+03  3.403763e+03 0.0 0.0 9.0
 1 -1 0 0 101   0  0.000000e+00  0.000000e+00 -1.666424e+03  1.666424e+03 0.0 0.0 9.0
22  1 1 2   0   0 -2.277530e+03  6.963990e+02  8.696618e+02  2.535434e+03 0.0 0.0 9.0
 1  1 1 2 103   0  2.277530e+03 -6.963990e+02  8.676774e+02  2.534754e+03 0.0047 0.0 9.0
#pdf 21 1 5.236559e-01 2.563729e-01 5000.0 2.024338e-03 6.164848e-02
</event>
<event>
4 7 1.0 5000.0 7.905138e-03 7.739137e-02
 1 -1 0 0 101   0  0.000000e+00  0.000000e+00  2.043010e+03  2.043010e+03 0.0 0.0 9.0
21 -1 0 0 103 101  0.000000e+00  0.000000e+00 -2.758146e+03  2.758146e+03 0.0 0.0 9.0
22  1 1 2   0   0 -1.226305e+03 -1.743875e+03 -1.413375e+03  2.557841e+03 0.0 0.0 9.0
 1  1 1 2 103   0  1.226305e+03  1.743875e+03  6.982387e+02  2.243314e+03 0.0047 0.0 9.0
#pdf 1 21 3.143092e-01 4.243302e-01 5000.0 8.379663e-02 3.478655e-02
</event>
<event>
4 7 1.0 5000.0 7.905138e-03 7.739137e-02
 1 -1 0 0 101   0  0.000000e+00  0.000000e+00  1.955882e+03  1.955882e+03 0.0 0.0 9.0
21 -1 0 0 103 101  0.000000e+00  0.000000e+00 -3.362295e+03  3.362295e+03 0.0 0.0 9.0
22  1 1 2   0   0  2.281181e+03  1.055424e+03 -1.759599e+02  2.519656e+03 0.0 0.0 9.0
 1  1 1 2 103   0 -2.281181e+03 -1.055424e+03 -1.230452e+03  2.798521e+03 0.0047 0.0 9.0
#pdf 1 21 3.009050e-01 5.172761e-01 5000.0 9.202715e-02 1.362656e-02
</event>
<event>
4 7 1.0 5000.0 7.905138e-03 7.739137e-02
 1 -1 0 0 101   0  0.000000e+00  0.000000e+00  2.188168e+03  2.188168e+03 0.0 0.0 9.0
21 -1 0 0 103 101  0.000000e+00  0.000000e+00 -2.848833e+03  2.848833e+03 0.0 0.0 9.0
 1  1 1 2 103   0  1.301243e+03 -1.610596e+03 -1.737651e+03  2.703088e+03 0.0047 0.0 9.0
22  1 1 2   0   0 -1.301243e+03  1.610596e+03  1.076985e+03  2.333913e+03 0.0 0.0 9.0
#pdf 1 21 3.366412e-01 4.382820e-01 5000.0 7.126211e-02 3.062656e-02
</event>
<event>
4 7 1.0 5000.0 7.905138e-03 7.739137e-02
 1 -1 0 0 101   0  0.000000e+00  0.000000e+00  3.120922e+03  3.120922e+03 0.0 0.0 9.0
21 -1 0 0 103 101  0.000000e+00  0.000000e+00 -1.898215e+03  1.898215e+03 0.0 0.0 9.0
22  1 1 2   0   0 -7.250429e+02 -1.672835e+03  2.273929e+03  2.914587e+03 0.0 0.0 9.0
 1  1 1 2 103   0  7.250429e+02  1.672835e+03 -1.051222e+03  2.104550e+03 0.0047 0.0 9.0
#pdf 1 21 4.801419e-01 2.920331e-01 5000.0 2.032729e-02 9.778752e-02
</event>
<event>
4 7 1.0 5000.0 7.905138e-03 7.739137e-02
 1 -1 0 0 101   0  0.000000e+00  0.000000e+00  2.719982e+03  2.719982e+03 0.0 0.0 9.0
21 -1 0 0 103 101  0.000000e+00  0.000000e+00 -2.190623e+03  2.190623e+03 0.0 0.0 9.0
22  1 1 2   0   0  7.499973e+02 -2.252372e+03 -3.067860e+02  2.393699e+03 0.0 0.0 9.0
 1  1 1 2 103   0 -7.499973e+02  2.252372e+03  8.361451e+02  2.516906e+03 0.0047 0.0 9.0
#pdf 1 21 4.184587e-01 3.370189e-01 5000.0 3.666427e-02 7.106261e-02
</event>
<event>
4 7 1.0 5000.0 7.905138e-03 7.739137e-02
 1 -1 0 0 101   0  0.000000e+00  0.000000e+00  2.341384e+03  2.341384e+03 0.0 0.0 9.0
21 -1 0 0 103 101  0.000000e+00  0.000000e+00 -2.553563e+03  2.553563e+03 0.0 0.0 9.0
22  1 1 2   0   0  2.050344e+03  1.327465e+03 -2.193080e+02  2.452381e+03 0.0 0.0 9.0
 1  1 1 2 103   0 -2.050344e+03 -1.327465e+03  7.129013e+00  2.442565e+03 0.0047 0.0 9.0
#pdf 1 21 3.602129e-01 3.928558e-01 5000.0 5.955595e-02 4.574068e-02
</event>
<event>
4 7 1.0 5000.0 7.905138e-03 7.739137e-02
 1 -1 0 0 101   0  0.000000e+00  0.000000e+00  3.175810e+03  3.175810e+03 0.0 0.0 9.0
21 -1 0 0 103 101  0.000000e+00  0.000000e+00 -2.102685e+03  2.102685e+03 0.0 0.0 9.0
22  1 1 2   0   0 -1.134507e+03  5.277054e+02 -1.772669e+03  2.169778e+03 0.0 0.0 9.0
 1  1 1 2 103   0  1.134507e+03 -5.277054e+02  2.845794e+03  3.108717e+03 0.0047 0.0 9.0
#pdf 1 21 4.885861e-01 3.234900e-01 5000.0 1.861968e-02 7.846951e-02
</event>
<event>
4 7 1.0 5000.0 7.905138e-03 7.739137e-02
21 -1 0 0 103 101  0.000000e+00  0.000000e+00  2.035196e+03  2.035196e+03 0.0 0.0 9.0
 1 -1 0 0 101   0  0.000000e+00  0.000000e+00 -3.060567e+03  3.060567e+03 0.0 0.0 9.0
22  1 1 2   0   0  1.062167e+01 -5.501757e+02  1.972493e+03  2.047812e+03 0.0 0.0 9.0
 1  1 1 2 103   0 -1.062167e+01  5.501757e+02 -2.997864e+03  3.047950e+03 0.0047 0.0 9.0
#pdf 21 1 3.131070e-01 4.708564e-01 5000.0 3.069245e-02 4.186694e-03
</event>
<event>
4 7 1.0 5000.0 7.905138e-03 7.739137e-02
21 -1 0 0 103 101  0.000000e+00  0.000000e+00  4.286582e+03  4.286582e+03 0.0 0.0 9.0
 1 -1 0 0 101   0  0.000000e+00  0.000000e+00 -1.458488e+03  1.458488e+03 0.0 0.0 9.0
 1  1 1 2 103   0 -1.834460e+03 -1.484208e+03  2.364054e+03  3.340190e+03 0.0047 0.0 9.0
22  1 1 2   0   0  1.834460e+03  1.484208e+03  4.640396e+02  2.404880e+03 0.0 0.0 9.0
#pdf 21 1 6.594741e-01 2.243828e-01 5000.0 2.341298e-04 9.196858e-02
</event>
<event>
4 7 1.0 5000.0 7.905138e-03 7.739137e-02
 1 -1 0 0 101   0  0.000000e+00  0.000000e+00  2.633880e+03  2.633880e+03 0.0 0.0 9.0
21 -1 0 0 103 101  0.000000e+00  0.000000e+00 -2.484422e+03  2.484422e+03 0.0 0.0 9.0
22  1 1 2   0   0 -1.137319e+03 -1.402383e+03 -1.738087e+03  2.506216e+03 0.0 0.0 9.0
 1  1 1 2 103   0  1.137319e+03  1.402383e+03  1.887545e+03  2.612087e+03 0.0047 0.0 9.0
#pdf 1 21 4.052123e-01 3.822188e-01 5000.0 4.117533e-02 4.995945e-02
</event>
<event>
4 7 1.0 5000.0 7.905138e-03 7.739137e-02
 1 -1 0 0 101   0  0.000000e+00  0.000000e+00  2.348233e+03  2.348233e+03 0.0 0.0 9.0
21 -1 0 0 103 101  0.000000e+00  0.000000e+00 -2.551564e+03  2.551564e+03 0.0 0.0 9.0
 1  1 1 2 103   0  2.967013e+02 -5.277151e+02  2.272120e+03  2.351392e+03 0.0047 0.0 9.0
22  1 1 2   0   0 -2.967013e+02  5.277151e+02 -2.475451e+03  2.548406e+03 0.0 0.0 9.0
#pdf 1 21 3.612667e-01 3.925484e-01 5000.0 5.906852e-02 4.585868e-02
</event>
<event>
4 7 1.0 5000.0 7.905138e-03 7.739137e-02
 1 -1 0 0 101   0  0.000000e+00  0.000000e+00  2.435453e+03  2.435453e+03 0.0 0.0 9.0
21 -1 0 0 103 101  0.000000e+00  0.000000e+00 -2.571573e+03  2.571573e+03 0.0 0.0 9.0
 1  1 1 2 103   0  3.183458e+02  2.393736e+03 -7.252897e+02  2.521381e+03 0.0047 0.0 9.0
22  1 1 2   0   0 -3.183458e+02 -2.393736e+03  5.891693e+02  2.485646e+03 0.0 0.0 9.0
#pdf 1 21 3.746851e-01 3.956267e-01 5000.0 5.310501e-02 4.468673e-02
</event>
<event>
4 7 1.0 5000.0 7.905138e-03 7.739137e-02
 1 -1 0 0 101   0  0.000000e+00  0.000000e+00  2.359320e+03  2.359320e+03 0.0 0.0 9.0
21 -1 0 0 103 101  0.000000e+00  0.000000e+00 -2.576613e+03  2.576613e+03 0.0 0.0 9.0
 1  1 1 2 103   0 -5.988521e+02 -2.039317e+03 -1.359506e+03  2.523033e+03 0.0047 0.0 9.0
22  1 1 2   0   0  5.988521e+02  2.039317e+03  1.142213e+03  2.412900e+03 0.0 0.0 9.0
#pdf 1 21 3.629723e-01 3.964020e-01 5000.0 5.828529e-02 4.439493e-02
</event>
<event>
4 7 1.0 5000.0 7.905138e-03 7.739137e-02
21 -1 0 0 103 101  0.000000e+00  0.000000e+00  2.609948e+03  2.609948e+03 0.0 0.0 9.0
 1 -1 0 0 101   0  0.000000e+00  0.000000e+00 -2.415753e+03  2.415753e+03 0.0 0.0 9.0
22  1 1 2   0   0 -9.268924e+02 -8.565862e+02  2.269462e+03  2.596792e+03 0.0 0.0 9.0
 1  1 1 2 103   0  9.268924e+02  8.565862e+02 -2.075267e+03  2.428909e+03 0.0047 0.0 9.0
#pdf 21 1 4.015305e-01 3.716543e-01 5000.0 1.027985e-02 1.492844e-02
</event>
<event>
4 7 1.0 5000.0 7.905138e-03 7.739137e-02
21 -1 0 0 103 101  0.000000e+00  0.000000e+00  2.868994e+03  2.868994e+03 0.0 0.0 9.0
 1 -1 0 0 101   0  0.000000e+00  0.000000e+00 -2.174153e+03  2.174153e+03 0.0 0.0 9.0
22  1 1 2   0   0  8.711550e+02 -1.945866e+01  2.710544e+03  2.847163e+03 0.0 0.0 9.0
 1  1 1 2 103   0 -8.711550e+02  1.945866e+01 -2.015703e+03  2.195985e+03 0.0047 0.0 9.0
#pdf 21 1 4.413837e-01 3.344851e-01 5000.0 6.177935e-03 2.361059e-02
</event>
<event>
4 7 1.0 5000.0 7.905138e-03 7.739137e-02
21 -1 0 0 103 101  0.000000e+00  0.000000e+00  1.634029e+03  1.634029e+03 0.0 0.0 9.0
 1 -1 0 0 101   0  0.000000e+00  0.000000e+00 -3.820056e+03  3.820056e+03 0.0 0.0 9.0
22  1 1 2   0   0  1.582131e+03 -5.175861e+01  1.016810e+03  1.881414e+03 0.0 0.0 9.0
 1  1 1 2 103   0 -1.582131e+03  5.175861e+01 -3.202837e+03  3.572671e+03 0.0047 0.0 9.0
#pdf 21 1 2.513891e-01 5.877009e-01 5000.0 6.560224e-02 7.797933e-04
</event>
<event>
4 7 1.0 5000.0 7.905138e-03 7.739137e-02
 1 -1 0 0 101   0  0.000000e+00  0.000000e+00  1.661629e+03  1.661629e+03 0.0 0.0 9.0
21 -1 0 0 103 101  0.000000e+00  0.000000e+00 -2.815323e+03  2.815323e+03 0.0 0.0 9.0
22  1 1 2   0   0 -1.130352e+03  1.841246e+03 -6.810732e+02  2.265335e+03 0.0 0.0 9.0
 1  1 1 2 103   0  1.130352e+03 -1.841246e+03 -4.726209e+02  2.211618e+03 0.0047 0.0 9.0
#pdf 1 21 2.556353e-01 4.331267e-01 5000.0 1.240040e-01 3.211602e-02
</event>
<event>
4 7 1.0 5000.0 7.905138e-03 7.739137e-02
21 -1 0 0 103 101  0.000000e+00  0.000000e+00  1.542928e+03  1.542928e+03 0.0 0.0 9.0
 1 -1 0 0 101   0  0.000000e+00  0.000000e+00 -3.574783e+03  3.574783e+03 0.0 0.0 9.0
 1  1 1 2 103   0 -1.838581e+02 -2.239052e+03 -1.761676e+03  2.854936e+03 0.0047 0.0 9.0
22  1 1 2   0   0  1.838581e+02  2.239052e+03 -2.701790e+02  2.262776e+03 0.0 0.0 9.0
#pdf 21 1 2.373736e-01 5.499667e-01 5000.0 7.813508e-02 1.382338e-03
</event>
<event>
4 7 1.0 5000.0 7.905138e-03 7.739137e-02
21 -1 0 0 103 101  0.000000e+00  0.000000e+00  1.652108e+03  1.652108e+03 0.0 0.0 9.0
 1 -1 0 0 101   0  0.000000e+00  0.000000e+00 -3.883590e+03  3.883590e+03 0.0 0.0 9.0
22  1 1 2   0   0  2.155774e+03 -4.991338e+02  2.312757e+02  2.224856e+03 0.0 0.0 9.0
 1  1 1 2 103   0 -2.155774e+03  4.991338e+02 -2.462758e+03  3.310842e+03 0.0047 0.0 9.0
#pdf 21 1 2.541705e-01 5.974754e-01 5000.0 6.337140e-02 6.681248e-04
</event>
<event>
4 7 1.0 5000.0 7.905138e-03 7.739137e-02
21 -1 0 0 103 101  0.000000e+00  0.000000e+00  3.001912e+03  3.001912e+03 0.0 0.0 9.0
 1 -1 0 0 101   0  0.000000e+00  0.000000e+00 -2.056959e+03  2.056959e+03 0.0 0.0 9.0
22  1 1 2   0   0  1.040284e+03  4.544931e+02  2.722521e+03  2.949724e+03 0.0 0.0 9.0
 1  1 1 2 103   0 -1.040284e+03 -4.544931e+02 -1.777567e+03  2.109147e+03 0.0047 0.0 9.0
#pdf 21 1 4.618327e-01 3.164553e-01 5000.0 4.719059e-03 2.944724e-02
</event>
<event>
4 7 1.0 5000.0 7.905138e-03 7.739137e-02
21 -1 0 0 103 101  0.000000e+00  0.000000e+00  2.902533e+03  2.902533e+03 0.0 0.0 9.0
 1 -1 0 0 101   0  0.000000e+00  0.000000e+00 -2.210373e+03  2.210373e+03 0.0 0.0 9.0
22  1 1 2   0   0 -1.970825e+03  1.535121e+03  7.682153e+02  2.613600e+03 0.0 0.0 9.0
 1  1 1 2 103   0  1.970825e+03 -1.535121e+03 -7.605510e+01  2.499307e+03 0.0047 0.0 9.0
#pdf 21 1 4.465436e-01 3.400574e-01 5000.0 5.768040e-03 2.204739e-02
</event>
<event>
4 7 1.0 5000.0 7.905138e-03 7.739137e-02
21 -1 0 0 103 101  0.000000e+00  0.000000e+00  3.073429e+03  3.073429e+03 0.0 0.0 9.0
 1 -1 0 0 101   0  0.000000e+00  0.000000e+00 -2.035789e+03  2.035789e+03 0.0 0.0 9.0
 1  1 1 2 103   0  1.936391e+02 -2.360951e+03 -3.015604e+02  2.387996e+03 0.0047 0.0 9.0
22  1 1 2   0   0 -1.936391e+02  2.360951e+03  1.339201e+03  2.721221e+03 0.0 0.0 9.0
#pdf 21 1 4.728352e-01 3.131983e-01 5000.0 4.077405e-03 3.065777e-02
</event>
<event>
4 7 1.0 5000.0 7.905138e-03 7.739137e-02
 1 -1 0 0 101   0  0.000000e+00  0.000000e+00  1.850397e+03  1.850397e+03 0.0 0.0 9.0
21 -1 0 0 103 101  0.000000e+00  0.000000e+00 -3.265697e+03  3.265697e+03 0.0 0.0 9.0
22  1 1 2   0   0  1.640661e+03 -3.183100e+02  1.168264e+03  2.039100e+03 0.0 0.0 9.0
 1  1 1 2 103   0 -1.640661e+03  3.183100e+02 -2.583564e+03  3.076994e+03 0.0047 0.0 9.0
#pdf 1 21 2.846764e-01 5.024150e-01 5000.0 1.027350e-01 1.606304e-02
</event>
<event>
4 7 1.0 5000.0 7.905138e-03 7.739137e-02
 1 -1 0 0 101   0  0.000000e+00  0.000000e+00  2.514461e+03  2.514461e+03 0.0 0.0 9.0
21 -1 0 0 103 101  0.000000e+00  0.000000e+00 -2.497176e+03  2.497176e+03 0.0 0.0 9.0
22  1 1 2   0   0 -1.031733e+03 -1.573518e+03 -1.646245e+03  2.500111e+03 0.0 0.0 9.0
 1  1 1 2 103   0  1.031733e+03  1.573518e+03  1.663530e+03  2.511526e+03 0.0047 0.0 9.0
#pdf 1 21 3.868402e-01 3.841809e-01 5000.0 4.809151e-02 4.916015e-02
</event>
<event>
4 7 1.0 5000.0 7.905138e-03 7.739137e-02
21 -1 0 0 103 101  0.000000e+00  0.000000e+00  1.466749e+03  1.466749e+03 0.0 0.0 9.0
 1 -1 0 0 101   0  0.000000e+00  0.000000e+00 -4.239684e+03  4.239684e+03 0.0 0.0 9.0
22  1 1 2   0   0  6.489917e+02  9.826719e+02 -3.901484e+03  4.075342e+03 0.0 0.0 9.0
 1  1 1 2 103   0 -6.489917e+02 -9.826719e+02  1.128549e+03  1.631091e+03 0.0047 0.0 9.0
#pdf 21 1 2.256537e-01 6.522591e-01 5000.0 9.048791e-02 2.662538e-04
</event>
<event>
4 7 1.0 5000.0 7.905138e-03 7.739137e-02
21 -1 0 0 103 101  0.000000e+00  0.000000e+00  2.774272e+03  2.774272e+03 0.0 0.0 9.0
 1 -1 0 0 101   0  0.000000e+00  0.000000e+00 -2.301565e+03  2.301565e+03 0.0 0.0 9.0
 1  1 1 2 103   0 -1.964046e+03 -1.952176e+01 -1.360337e+03  2.389221e+03 0.0047 0.0 9.0
22  1 1 2   0   0  1.964046e+03  1.952176e+01  1.833044e+03  2.686616e+03 0.0 0.0 9.0
#pdf 21 1 4.268111e-01 3.540869e-01 5000.0 7.450315e-03 1.855475e-02
</event>
<event>
4 7 1.0 5000.0 7.905138e-03 7.739137e-02
21 -1 0 0 103 101  0.000000e+00  0.000000e+00  1.837211e+03  1.837211e+03 0.0 0.0 9.0
 1 -1 0 0 101   0  0.000000e+00  0.000000e+00 -3.252892e+03  3.252892e+03 0.0 0.0 9.0
 1  1 1 2 103   0  1.182375e+03 -8.318041e+02  1.344515e+03  1.974242e+03 0.0047 0.0 9.0
22  1 1 2   0   0 -1.182375e+03  8.318041e+02 -2.760196e+03  3.115861e+03 0.0 0.0 9.0
#pdf 21 1 2.826478e-01 5.004449e-01 5000.0 4.454699e-02 2.801027e-03
</event>
<event>
4 7 1.0 5000.0 7.905138e-03 7.739137e-02
21 -1 0 0 103 101  0.000000e+00  0.000000e+00  3.038426e+03  3.038426e+03 0.0 0.0 9.0
 1 -1 0 0 101   0  0.000000e+00  0.000000e+00 -2.044593e+03  2.044593e+03 0.0 0.0 9.0
 1  1 1 2 103   0 -2.484417e+03 -1.855703e+02  4.207329e+02  2.526614e+03 0.0047 0.0 9.0
22  1 1 2   0   0  2.484417e+03  1.855703e+02  5.730997e+02  2.556405e+03 0.0 0.0 9.0
#pdf 21 1 4.674501e-01 3.145528e-01 5000.0 4.380898e-03 3.014778e-02
</event>
<event>
4 7 1.0 5000.0 7.905138e-03 7.739137e-02
21 -1 0 0 103 101  0.000000e+00  0.000000e+00  2.672351e+03  2.672351e+03 0.0 0.0 9.0
 1 -1 0 0 101   0  0.000000e+00  0.000000e+00 -2.211953e+03  2.211953e+03 0.0 0.0 9.0
 1  1 1 2 103   0  1.552389e+03 -3.758236e+00  2.109714e+03  2.619317e+03 0.0047 0.0 9.0
22  1 1 2   0   0 -1.552389e+03  3.758236e+00 -1.649316e+03  2.264988e+03 0.0 0.0 9.0
#pdf 21 1 4.111310e-01 3.403005e-01 5000.0 9.101785e-03 2.198185e-02
</event>
<event>
4 7 1.0 5000.0 7.905138e-03 7.739137e-02
21 -1 0 0 103 101  0.000000e+00  0.000000e+00  2.974745e+03  2.974745e+03 0.0 0.0 9.0
 1 -1 0 0 101   0  0.000000e+00  0.000000e+00 -2.175654e+03  2.175654e+03 0.0 0.0 9.0
 1  1 1 2 103   0  8.499509e+02 -2.381151e+03  6.853496e+02  2.619542e+03 0.0047 0.0 9.0
22  1 1 2   0   0 -8.499509e+02  2.381151e+03  1.137420e+02  2.530857e+03 0.0 0.0 9.0
#pdf 21 1 4.576531e-01 3.347160e-01 5000.0 4.989154e-03 2.354364e-02
</event>
<event>
4 7 1.0 5000.0 7.905138e-03 7.739137e-02
21 -1 0 0 103 101  0.000000e+00  0.000000e+00  1.801538e+03  1.801538e+03 0.0 0.0 9.0
 1 -1 0 0 101   0  0.000000e+00  0.000000e+00 -3.463884e+03  3.463884e+03 0.0 0.0 9.0
 1  1 1 2 103   0 -1.071529e+03  2.148748e+03 -1.047997e+02  2.403388e+03 0.0047 0.0 9.0
22  1 1 2   0   0  1.071529e+03 -2.148748e+03 -1.557546e+03  2.862034e+03 0.0 0.0 9.0
#pdf 21 1 2.771597e-01 5.329052e-01 5000.0 4.766188e-02 1.774349e-03
</event>
<event>
4 7 1.0 5000.0 7.905138e-03 7.739137e-02
21 -1 0 0 103 101  0.000000e+00  0.000000e+00  2.128023e+03  2.128023e+03 0.0 0.0 9.0
 1 -1 0 0 101   0  0.000000e+00  0.000000e+00 -2.588113e+03  2.588113e+03 0.0 0.0 9.0
 1  1 1 2 103   0 -1.552784e+03 -5.572865e+02 -1.907134e+03  2.521679e+03 0.0047 0.0 9.0
22  1 1 2   0   0  1.552784e+03  5.572865e+02  1.447044e+03  2.194457e+03 0.0 0.0 9.0
#pdf 21 1 3.273882e-01 3.981712e-01 5000.0 2.575639e-02 1.072352e-02
</event>
<event>
4 7 1.0 5000.0 7.905138e-03 7.739137e-02
 1 -1 0 0 101   0  0.000000e+00  0.000000e+00  1.793252e+03  1.793252e+03 0.0 0.0 9.0
21 -1 0 0 103 101  0.000000e+00  0.000000e+00 -3.520983e+03  3.520983e+03 0.0 0.0 9.0
 1  1 1 2 103   0 -8.479956e+02 -2.345630e+03 -5.415071e+02  2.552314e+03 0.0047 0.0 9.0
22  1 1 2   0   0  8.479956e+02  2.345630e+03 -1.186225e+03  2.761921e+03 0.0 0.0 9.0
#pdf 1 21 2.758848e-01 5.416898e-01 5000.0 1.088789e-01 1.025238e-02
</event>
<event>
4 7 1.0 5000.0 7.905138e-03 7.739137e-02
 1 -1 0 0 101   0  0.000000e+00  0.000000e+00  2.162630e+03  2.162630e+03 0.0 0.0 9.0
21 -1 0 0 103 101  0.000000e+00  0.000000e+00 -2.722356e+03  2.722356e+03 0.0 0.0 9.0
22  1 1 2   0   0 -8.638946e+02 -2.258259e+03 -4.846809e+02  2.465961e+03 0.0 0.0 9.0
 1  1 1 2 103   0  8.638946e+02  2.258259e+03 -7.504594e+01  2.419025e+03 0.0047 0.0 9.0
#pdf 1 21 3.327122e-01 4.188241e-01 5000.0 7.336230e-02 3.654529e-02
</event>
<event>
4 7 1.0 5000.0 7.905138e-03 7.739137e-02
 1 -1 0 0 101   0  0.000000e+00  0.000000e+00  3.258962e+03  3.258962e+03 0.0 0.0 9.0
21 -1 0 0 103 101  0.000000e+00  0.000000e+00 -1.908011e+03  1.908011e+03 0.0 0.0 9.0
 1  1 1 2 103   0  7.733556e+02  1.054581e+03  2.875178e+03  3.158618e+03 0.0047 0.0 9.0
22  1 1 2   0   0 -7.733556e+02 -1.054581e+03 -1.524227e+03  2.008354e+03 0.0 0.0 9.0
#pdf 1 21 5.013787e-01 2.935401e-01 5000.0 1.624472e-02 9.679360e-02
</event>
<event>
4 7 1.0 5000.0 7.905138e-03 7.739137e-02
21 -1 0 0 103 101  0.000000e+00  0.000000e+00  1.938415e+03  1.938415e+03 0.0 0.0 9.0
 1 -1 0 0 101   0  0.000000e+00  0.000000e+00 -3.225301e+03  3.225301e+03 0.0 0.0 9.0
22  1 1 2   0   0  2.291308e+03 -4.446835e+02  2.825115e+02  2.351095e+03 0.0 0.0 9.0
 1  1 1 2 103   0 -2.291308e+03  4.446835e+02 -1.569397e+03  2.812622e+03 0.0047 0.0 9.0
#pdf 21 1 2.982178e-01 4.962002e-01 5000.0 3.683166e-02 2.970106e-03
</event>
<event>
4 7 1.0 5000.0 7.905138e-03 7.739137e-02
 1 -1 0 0 101   0  0.000000e+00  0.000000e+00  2.729751e+03  2.729751e+03 0.0 0.0 9.0
21 -1 0 0 103 101  0.000000e+00  0.000000e+00 -2.329944e+03  2.329944e+03 0.0 0.0 9.0
22  1 1 2   0   0  2.043833e+03 -1.470509e+03  3.435839e+02  2.541201e+03 0.0 0.0 9.0
 1  1 1 2 103   0 -2.043833e+03  1.470509e+03  5.622318e+01  2.518494e+03 0.0047 0.0 9.0
#pdf 1 21 4.199617e-01 3.584529e-01 5000.0 3.617659e-02 6.037651e-02
</event>
<event>
4 7 1.0 5000.0 7.905138e-03 7.739137e-02
21 -1 0 0 103 101  0.000000e+00  0.000000e+00  1.925613e+03  1.925613e+03 0.0 0.0 9.0
 1 -1 0 0 101   0  0.000000e+00  0.000000e+00 -3.087544e+03  3.087544e+03 0.0 0.0 9.0
22  1 1 2   0   0 -1.260052e+02 -2.005180e+03 -2.001230e+03  2.835762e+03 0.0 0.0 9.0
 1  1 1 2 103   0  1.260052e+02  2.005180e+03  8.392989e+02  2.177394e+03 0.0047 0.0 9.0
#pdf 21 1 2.962481e-01 4.750067e-01 5000.0 3.774740e-02 3.960373e-03
</event>
<event>
4 7 1.0 5000.0 7.905138e-03 7.739137e-02
21 -1 0 0 103 101  0.000000e+00  0.000000e+00  3.797187e+03  3.797187e+03 0.0 0.0 9.0
 1 -1 0 0 101   0  0.000000e+00  0.000000e+00 -1.646603e+03  1.646603e+03 0.0 0.0 9.0
 1  1 1 2 103   0  2.372009e+03 -3.537628e+02  3.048955e+02  2.417548e+03 0.0047 0.0 9.0
22  1 1 2   0   0 -2.372009e+03  3.537628e+02  1.845688e+03  3.026242e+03 0.0 0.0 9.0
#pdf 21 1 5.841826e-01 2.533236e-01 5000.0 8.237649e-04 6.404454e-02
</event>
<event>
4 7 1.0 5000.0 7.905138e-03 7.739137e-02
21 -1 0 0 103 101  0.000000e+00  0.000000e+00  1.752636e+03  1.752636e+03 0.0 0.0 9.0
 1 -1 0 0 101   0  0.000000e+00  0.000000e+00 -3.520208e+03  3.520208e+03 0.0 0.0 9.0
22  1 1 2   0   0  1.818777e+03  1.710249e+02 -2.670132e+03  3.235244e+03 0.0 0.0 9.0
 1  1 1 2 103   0 -1.818777e+03 -1.710249e+02  9.025610e+02  2.037600e+03 0.0047 0.0 9.0
#pdf 21 1 2.696364e-01 5.415704e-01 5000.0 5.227887e-02 1.563890e-03
</event>
<event>
4 7 1.0 5000.0 7.905138e-03 7.739137e-02
21 -1 0 0 103 101  0.000000e+00  0.000000e+00  3.218566e+03  3.218566e+03 0.0 0.0 9.0
 1 -1 0 0 101   0  0.000000e+00  0.000000e+00 -1.966647e+03  1.966647e+03 0.0 0.0 9.0
 1  1 1 2 103   0  1.335196e+03 -3.653753e+02 -1.538929e+03  2.069915e+03 0.0047 0.0 9.0
22  1 1 2   0   0 -1.335196e+03  3.653753e+02  2.790848e+03  3.115298e+03 0.0 0.0 9.0
#pdf 21 1 4.951641e-01 3.025611e-01 5000.0 3.012610e-03 3.492386e-02
</event>
<event>
4 7 1.0 5000.0 7.905138e-03 7.739137e-02
 1 -1 0 0 101   0  0.000000e+00  0.000000e+00  2.107568e+03  2.107568e+03 0.0 0.0 9.0
21 -1 0 0 103 101  0.000000e+00  0.000000e+00 -2.541499e+03  2.541499e+03 0.0 0.0 9.0
 1  1 1 2 103   0  1.386357e+03  1.583084e+02 -2.071499e+03  2.497630e+03 0.0047 0.0 9.0
22  1 1 2   0   0 -1.386357e+03 -1.583084e+02  1.637568e+03  2.151436e+03 0.0 0.0 9.0
#pdf 1 21 3.242412e-01 3.909998e-01 5000.0 7.804438e-02 4.645634e-02
</event>
<event>
4 7 1.0 5000.0 7.905138e-03 7.739137e-02
 1 -1 0 0 101   0  0.000000e+00  0.000000e+00  2.142310e+03  2.142310e+03 0.0 0.0 9.0
21 -1 0 0 103 101  0.000000e+00  0.000000e+00 -2.458233e+03  2.458233e+03 0.0 0.0 9.0
22  1 1 2   0   0  1.880678e+03 -6.372408e+02  9.950963e+02  2.221090e+03 0.0 0.0 9.0
 1  1 1 2 103   0 -1.880678e+03  6.372408e+02 -1.311019e+03  2.379453e+03 0.0047 0.0 9.0
#pdf 1 21 3.295862e-01 3.781897e-01 5000.0 7.506589e-02 5.162755e-02
</event>
<event>
4 7 1.0 5000.0 7.905138e-03 7.739137e-02
21 -1 0 0 103 101  0.000000e+00  0.000000e+00  2.668128e+03  2.668128e+03 0.0 0.0 9.0
 1 -1 0 0 101   0  0.000000e+00  0.000000e+00 -2.343044e+03  2.343044e+03 0.0 0.0 9.0
22  1 1 2   0   0 -3.414279e+02 -1.230360e+03 -1.991689e+03  2.365837e+03 0.0 0.0 9.0
 1  1 1 2 103   0  3.414279e+02  1.230360e+03  2.316773e+03  2.645335e+03 0.0047 0.0 9.0
#pdf 21 1 4.104812e-01 3.604683e-01 5000.0 9.177382e-03 1.714990e-02
</event>
<event>
4 7 1.0 5000.0 7.905138e-03 7.739137e-02
 1 -1 0 0 101   0  0.000000e+00  0.000000e+00  3.874233e+03  3.874233e+03 0.0 0.0 9.0
21 -1 0 0 103 101  0.000000e+00  0.000000e+00 -1.609986e+03  1.609986e+03 0.0 0.0 9.0
22  1 1 2   0   0 -8.504906e+01 -1.364441e+03 -1.162695e+03  1.794657e+03 0.0 0.0 9.0
 1  1 1 2 103   0  8.504906e+01  1.364441e+03  3.426943e+03  3.689562e+03 0.0047 0.0 9.0
#pdf 1 21 5.960359e-01 2.476901e-01 5000.0 5.065337e-03 1.303157e-01
</event>
<event>
4 7 1.0 5000.0 7.905138e-03 7.739137e-02
21 -1 0 0 103 101  0.000000e+00  0.000000e+00  2.070170e+03  2.070170e+03 0.0 0.0 9.0
 1 -1 0 0 101   0  0.000000e+00  0.000000e+00 -3.062921e+03  3.062921e+03 0.0 0.0 9.0
 1  1 1 2 103   0  1.840896e+03  1.542898e+03 -1.266787e+03  2.715544e+03 0.0047 0.0 9.0
22  1 1 2   0   0 -1.840896e+03 -1.542898e+03  2.740357e+02  2.417546e+03 0.0 0.0 9.0
#pdf 21 1 3.184876e-01 4.712186e-01 5000.0 2.872048e-02 4.166502e-03
</event>
<event>
4 7 1.0 5000.0 7.905138e-03 7.739137e-02
 1 -1 0 0 101   0  0.000000e+00  0.000000e+00  1.751985e+03  1.751985e+03 0.0 0.0 9.0
21 -1 0 0 103 101  0.000000e+00  0.000000e+00 -3.656929e+03  3.656929e+03 0.0 0.0 9.0
 1  1 1 2 103   0 -2.319544e+03 -4.601882e+02 -1.916943e+03  3.044130e+03 0.0047 0.0 9.0
22  1 1 2   0   0  2.319544e+03  4.601882e+02  1.199843e+01  2.364784e+03 0.0 0.0 9.0
#pdf 1 21 2.695361e-01 5.626045e-01 5000.0 1.134774e-01 7.920914e-03
</event>
<event>
4 7 1.0 5000.0 7.905138e-03 7.739137e-02
 1 -1 0 0 101   0  0.000000e+00  0.000000e+00  3.675954e+03  3.675954e+03 0.0 0.0 9.0
21 -1 0 0 103 101  0.000000e+00  0.000000e+00 -1.767836e+03  1.767836e+03 0.0 0.0 9.0
22  1 1 2   0   0  2.479719e+03 -1.913518e+02  3.568281e+02  2.512558e+03 0.0 0.0 9.0
 1  1 1 2 103   0 -2.479719e+03  1.913518e+02  1.551290e+03  2.931232e+03 0.0047 0.0 9.0
#pdf 1 21 5.655314e-01 2.719747e-01 5000.0 7.628092e-03 1.116955e-01
</event>
<event>
4 7 1.0 5000.0 7.905138e-03 7.739137e-02
21 -1 0 0 103 101  0.000000e+00  0.000000e+00  3.254717e+03  3.254717e+03 0.0 0.0 9.0
 1 -1 0 0 101   0  0.000000e+00  0.000000e+00 -1.983205e+03  1.983205e+03 0.0 0.0 9.0
22  1 1 2   0   0 -1.024024e+03  1.837383e+03  2.104529e+03  2.975508e+03 0.0 0.0 9.0
 1  1 1 2 103   0  1.024024e+03 -1.837383e+03 -8.330171e+02  2.262415e+03 0.0047 0.0 9.0
#pdf 21 1 5.007257e-01 3.051085e-01 5000.0 2.790145e-03 3.386747e-02
</event>
<event>
4 7 1.0 5000.0 7.905138e-03 7.739137e-02
21 -1 0 0 103 101  0.000000e+00  0.000000e+00  1.450304e+03  1.450304e+03 0.0 0.0 9.0
 1 -1 0 0 101   0  0.000000e+00  0.000000e+00 -4.287261e+03  4.287261e+03 0.0 0.0 9.0
 1  1 1 2 103   0  4.392701e+02 -2.266032e+03 -2.503822e+03  3.405434e+03 0.0047 0.0 9.0
22  1 1 2   0   0 -4.392701e+02  2.266032e+03 -3.331350e+02  2.332131e+03 0.0 0.0 9.0
#pdf 21 1 2.231237e-01 6.595786e-01 5000.0 9.346161e-02 2.336833e-04
</event>
<event>
4 7 1.0 5000.0 7.905138e-03 7.739137e-02
 1 -1 0 0 101   0  0.000000e+00  0.000000e+00  2.704475e+03  2.704475e+03 0.0 0.0 9.0
21 -1 0 0 103 101  0.000000e+00  0.000000e+00 -2.395685e+03  2.395685e+03 0.0 0.0 9.0
22  1 1 2   0   0 -1.325330e+03 -2.171606e+03  7.239872e+01  2.545116e+03 0.0 0.0 9.0
 1  1 1 2 103   0  1.325330e+03  2.171606e+03  2.363912e+02  2.555045e+03 0.0047 0.0 9.0
#pdf 1 21 4.160731e-01 3.685670e-01 5000.0 3.744834e-02 5.575813e-02
</event>
<event>
4 7 1.0 5000.0 7.905138e-03 7.739137e-02
21 -1 0 0 103 101  0.000000e+00  0.000000e+00  2.012870e+03  2.012870e+03 0.0 0.0 9.0
 1 -1 0 0 101   0  0.000000e+00  0.000000e+00 -3.144906e+03  3.144906e+03 0.0 0.0 9.0
 1  1 1 2 103   0  4.116626e+02 -7.752889e+02 -2.982861e+03  3.109340e+03 0.0047 0.0 9.0
22  1 1 2   0   0 -4.116626e+02  7.752889e+02  1.850825e+03  2.048436e+03 0.0 0.0 9.0
#pdf 21 1 3.096724e-01 4.838317e-01 5000.0 3.202509e-02 3.514725e-03
</event>
<event>
4 7 1.0 5000.0 7.905138e-03 7.739137e-02
 1 -1 0 0 101   0  0.000000e+00  0.000000e+00  1.300835e+03  1.300835e+03 0.0 0.0 9.0
21 -1 0 0 103 101  0.000000e+00  0.000000e+00 -4.075184e+03  4.075184e+03 0.0 0.0 9.0
22  1 1 2   0   0  1.174647e+03 -1.933820e+03 -1.884802e+03  2.944815e+03 0.0 0.0 9.0
 1  1 1 2 103   0 -1.174647e+03  1.933820e+03 -8.895471e+02  2.431204e+03 0.0047 0.0 9.0
#pdf 1 21 2.001284e-01 6.269514e-01 5000.0 1.727922e-01 3.219972e-03
</event>
<event>
4 7 1.0 5000.0 7.905138e-03 7.739137e-02
21 -1 0 0 103 101  0.000000e+00  0.000000e+00  3.468324e+03  3.468324e+03 0.0 0.0 9.0
 1 -1 0 0 101   0  0.000000e+00  0.000000e+00 -1.793648e+03  1.793648e+03 0.0 0.0 9.0
 1  1 1 2 103   0 -7.843106e+02 -6.097293e+02  3.250623e+03  3.399039e+03 0.0047 0.0 9.0
22  1 1 2   0   0  7.843106e+02  6.097293e+02 -1.575947e+03  1.862933e+03 0.0 0.0 9.0
#pdf 21 1 5.335883e-01 2.759458e-01 5000.0 1.756846e-03 4.837830e-02
</event>
<event>
4 7 1.0 5000.0 7.905138e-03 7.739137e-02
21 -1 0 0 103 101  0.000000e+00  0.000000e+00  2.496830e+03  2.496830e+03 0.0 0.0 9.0
 1 -1 0 0 101   0  0.000000e+00  0.000000e+00 -2.494647e+03  2.494647e+03 0.0 0.0 9.0
 1  1 1 2 103   0  8.742032e+02  2.067061e+03  1.092758e+03  2.496216e+03 0.0047 0.0 9.0
22  1 1 2   0   0 -8.742032e+02 -2.067061e+03 -1.090574e+03  2.495261e+03 0.0 0.0 9.0
#pdf 21 1 3.841277e-01 3.837918e-01 5000.0 1.279656e-02 1.285074e-02
</event>
<event>
4 7 1.0 5000.0 7.905138e-03 7.739137e-02
21 -1 0 0 103 101  0.000000e+00  0.000000e+00  2.176777e+03  2.176777e+03 0.0 0.0 9.0
 1 -1 0 0 101   0  0.000000e+00  0.000000e+00 -2.845989e+03  2.845989e+03 0.0 0.0 9.0
22  1 1 2   0   0 -5.154301e+02  7.399021e+02  2.006168e+03  2.199508e+03 0.0 0.0 9.0
 1  1 1 2 103   0  5.154301e+02 -7.399021e+02 -2.675380e+03  2.823257e+03 0.0047 0.0 9.0
#pdf 21 1 3.348887e-01 4.378444e-01 5000.0 2.349365e-02 6.468396e-03
</event>
<event>
4 7 1.0 5000.0 7.905138e-03 7.739137e-02
21 -1 0 0 103 101  0.000000e+00  0.000000e+00  2.330593e+03  2.330593e+03 0.0 0.0 9.0
 1 -1 0 0 101   0  0.000000e+00  0.000000e+00 -2.695734e+03  2.695734e+03 0.0 0.0 9.0
 1  1 1 2 103   0 -7.294379e+02 -1.995081e+03  1.151455e+03  2.416252e+03 0.0047 0.0 9.0
22  1 1 2   0   0  7.294379e+02  1.995081e+03 -1.516596e+03  2.610075e+03 0.0 0.0 9.0
#pdf 21 1 3.585527e-01 4.147283e-01 5000.0 1.755704e-02 8.694679e-03
</event>
<event>
4 7 1.0 5000.0 7.905138e-03 7.739137e-02
21 -1 0 0 103 101  0.000000e+00  0.000000e+00  1.948146e+03  1.948146e+03 0.0 0.0 9.0
 1 -1 0 0 101   0  0.000000e+00  0.000000e+00 -3.067967e+03  3.067967e+03 0.0 0.0 9.0
 1  1 1 2 103   0 -2.383133e+03  1.791979e+02 -1.088431e+03  2.626046e+03 0.0047 0.0 9.0
22  1 1 2   0   0  2.383133e+03 -1.791979e+02 -3.138932e+01  2.390067e+03 0.0 0.0 9.0
#pdf 21 1 2.997148e-01 4.719949e-01 5000.0 3.614093e-02 4.123507e-03
</event>
<event>
4 7 1.0 5000.0 7.905138e-03 7.739137e-02
 1 -1 0 0 101   0  0.000000e+00  0.000000e+00  3.356383e+03  3.356383e+03 0.0 0.0 9.0
21 -1 0 0 103 101  0.000000e+00  0.000000e+00 -1.844745e+03  1.844745e+03 0.0 0.0 9.0
 1  1 1 2 103   0  1.925771e+03  1.034525e+03 -4.864324e+02  2.239521e+03 0.0047 0.0 9.0
22  1 1 2   0   0 -1.925771e+03 -1.034525e+03  1.998070e+03  2.961608e+03 0.0 0.0 9.0
#pdf 1 21 5.163666e-01 2.838070e-01 5000.0 1.376708e-02 1.033309e-01
</event>
<event>
4 7 1.0 5000.0 7.905138e-03 7.739137e-02
21 -1 0 0 103 101  0.000000e+00  0.000000e+00  2.497803e+03  2.497803e+03 0.0 0.0 9.0
 1 -1 0 0 101   0  0.000000e+00  0.000000e+00 -2.475902e+03  2.475902e+03 0.0 0.0 9.0
 1  1 1 2 103   0 -1.858682e+02  7.575856e+02  2.372293e+03  2.497250e+03 0.0047 0.0 9.0
22  1 1 2   0   0  1.858682e+02 -7.575856e+02 -2.350392e+03  2.476454e+03 0.0 0.0 9.0
#pdf 21 1 3.842774e-01 3.809079e-01 5000.0 1.277248e-02 1.332395e-02
</event>
<event>
4 7 1.0 5000.0 7.905138e-03 7.739137e-02
 1 -1 0 0 101   0  0.000000e+00  0.000000e+00  3.326377e+03  3.326377e+03 0.0 0.0 9.0
21 -1 0 0 103 101  0.000000e+00  0.000000e+00 -1.905909e+03  1.905909e+03 0.0 0.0 9.0
22  1 1 2   0   0  2.026853e+03 -7.651002e+02 -6.228997e+02  2.254222e+03 0.0 0.0 9.0
 1  1 1 2 103   0 -2.026853e+03  7.651002e+02  2.043368e+03  2.978064e+03 0.0047 0.0 9.0
#pdf 1 21 5.117503e-01 2.932167e-01 5000.0 1.449699e-02 9.700635e-02
</event>
<event>
4 7 1.0 5000.0 7.905138e-03 7.739137e-02
 1 -1 0 0 101   0  0.000000e+00  0.000000e+00  2.893834e+03  2.893834e+03 0.0 0.0 9.0
21 -1 0 0 103 101  0.000000e+00  0.000000e+00 -2.176806e+03  2.176806e+03 0.0 0.0 9.0
22  1 1 2   0   0 -2.673546e+02 -1.461588e+03  2.401815e+03  2.824258e+03 0.0 0.0 9.0
 1  1 1 2 103   0  2.673546e+02  1.461588e+03 -1.684788e+03  2.246381e+03 0.0047 0.0 9.0
#pdf 1 21 4.452052e-01 3.348932e-01 5000.0 2.868802e-02 7.219081e-02
</event>
<event>
4 7 1.0 5000.0 7.905138e-03 7.739137e-02
21 -1 0 0 103 101  0.000000e+00  0.000000e+00  3.373236e+03  3.373236e+03 0.0 0.0 9.0
 1 -1 0 0 101   0  0.000000e+00  0.000000e+00 -1.828499e+03  1.828499e+03 0.0 0.0 9.0
 1  1 1 2 103   0 -4.400677e+02 -1.969386e+03 -7.437190e+02  2.150642e+03 0.0047 0.0 9.0
22  1 1 2   0   0  4.400677e+02  1.969386e+03  2.288456e+03  3.051094e+03 0.0 0.0 9.0
#pdf 21 1 5.189594e-01 2.813076e-01 5000.0 2.163257e-03 4.528872e-02
</event>
<event>
4 7 1.0 5000.0 7.905138e-03 7.739137e-02
 1 -1 0 0 101   0  0.000000e+00  0.000000e+00  2.049016e+03  2.049016e+03 0.0 0.0 9.0
21 -1 0 0 103 101  0.000000e+00  0.000000e+00 -3.023753e+03  3.023753e+03 0.0 0.0 9.0
 1  1 1 2 103   0  8.505728e+02 -1.698531e+03 -2.126400e+03  2.851326e+03 0.0047 0.0 9.0
22  1 1 2   0   0 -8.505728e+02  1.698531e+03  1.151664e+03  2.221444e+03 0.0 0.0 9.0
#pdf 1 21 3.152333e-01 4.651928e-01 5000.0 8.324834e-02 2.364095e-02
</event>
<event>
4 7 1.0 5000.0 7.905138e-03 7.739137e-02
 1 -1 0 0 101   0  0.000000e+00  0.000000e+00  1.627386e+03  1.627386e+03 0.0 0.0 9.0
21 -1 0 0 103 101  0.000000e+00  0.000000e+00 -3.858363e+03  3.858363e+03 0.0 0.0 9.0
 1  1 1 2 103   0  2.375368e+03  2.368133e+01 -1.988514e+03  3.097922e+03 0.0047 0.0 9.0
22  1 1 2   0   0 -2.375368e+03 -2.368133e+01 -2.424636e+02  2.387828e+03 0.0 0.0 9.0
#pdf 1 21 2.503671e-01 5.935944e-01 5000.0 1.281663e-01 5.240475e-03
</event>
<event>
4 7 1.0 5000.0 7.905138e-03 7.739137e-02
 1 -1 0 0 101   0  0.000000e+00  0.000000e+00  4.554668e+03  4.554668e+03 0.0 0.0 9.0
21 -1 0 0 103 101  0.000000e+00  0.000000e+00 -1.367814e+03  1.367814e+03 0.0 0.0 9.0
22  1 1 2   0   0  7.570643e+02  2.157553e+02  4.403533e+03  4.473343e+03 0.0 0.0 9.0
 1  1 1 2 103   0 -7.570643e+02 -2.157553e+02 -1.216679e+03  1.449139e+03 0.0047 0.0 9.0
#pdf 1 21 7.007182e-01 2.104329e-01 5000.0 8.923885e-04 1.628732e-01
</event>
<event>
4 7 1.0 5000.0 7.905138e-03 7.739137e-02
21 -1 0 0 103 101  0.000000e+00  0.000000e+00  3.734405e+03  3.734405e+03 0.0 0.0 9.0
 1 -1 0 0 101   0  0.000000e+00  0.000000e+00 -1.687680e+03  1.687680e+03 0.0 0.0 9.0
22  1 1 2   0   0  1.024063e+03 -6.570768e+02 -1.347986e+03  1.815908e+03 0.0 0.0 9.0
 1  1 1 2 103   0 -1.024063e+03  6.570768e+02  3.394711e+03  3.606177e+03 0.0047 0.0 9.0
#pdf 21 1 5.745238e-01 2.596432e-01 5000.0 9.559994e-04 5.917181e-02
</event>
<event>
4 7 1.0 5000.0 7.905138e-03 7.739137e-02
21 -1 0 0 103 101  0.000000e+00  0.000000e+00  3.017444e+03  3.017444e+03 0.0 0.0 9.0
 1 -1 0 0 101   0  0.000000e+00  0.000000e+00 -2.102168e+03  2.102168e+03 0.0 0.0 9.0
22  1 1 2   0   0 -2.397332e+03 -4.353721e+01 -3.257484e+02  2.419753e+03 0.0 0.0 9.0
 1  1 1 2 103   0  2.397332e+03  4.353721e+01  1.241025e+03  2.699859e+03 0.0047 0.0 9.0
#pdf 21 1 4.642222e-01 3.234104e-01 5000.0 4.572267e-03 2.704021e-02
</event>
<event>
4 7 1.0 5000.0 7.905138e-03 7.739137e-02
21 -1 0 0 103 101  0.000000e+00  0.000000e+00  1.904649e+03  1.904649e+03 0.0 0.0 9.0
 1 -1 0 0 101   0  0.000000e+00  0.000000e+00 -3.285514e+03  3.285514e+03 0.0 0.0 9.0
 1  1 1 2 103   0  9.660025e+02 -2.303544e+03 -8.306609e+02  2.632390e+03 0.0047 0.0 9.0
22  1 1 2   0   0 -9.660025e+02  2.303544e+03 -5.502041e+02  2.557773e+03 0.0 0.0 9.0
#pdf 21 1 2.930229e-01 5.054636e-01 5000.0 3.927162e-02 2.612898e-03
</event>
<event>
4 7 1.0 5000.0 7.905138e-03 7.739137e-02
21 -1 0 0 103 101  0.000000e+00  0.000000e+00  1.607356e+03  1.607356e+03 0.0 0.0 9.0
 1 -1 0 0 101   0  0.000000e+00  0.000000e+00 -3.933389e+03  3.933389e+03 0.0 0.0 9.0
 1  1 1 2 103   0  3.705620e+02 -1.271218e+03 -3.518128e+03  3.759060e+03 0.0047 0.0 9.0
22  1 1 2   0   0 -3.705620e+02  1.271218e+03  1.192095e+03  1.781685e+03 0.0 0.0 9.0
#pdf 21 1 2.472856e-01 6.051368e-01 5000.0 6.898598e-02 5.912100e-04
</event>
<event>
4 7 1.0 5000.0 7.905138e-03 7.739137e-02
 1 -1 0 0 101   0  0.000000e+00  0.000000e+00  1.920578e+03  1.920578e+03 0.0 0.0 9.0
21 -1 0 0 103 101  0.000000e+00  0.000000e+00 -3.113850e+03  3.113850e+03 0.0 0.0 9.0
 1  1 1 2 103   0  1.561527e+03 -2.541715e+02  1.322845e+03  2.062254e+03 0.0047 0.0 9.0
22  1 1 2   0   0 -1.561527e+03  2.541715e+02 -2.516117e+03  2.972174e+03 0.0 0.0 9.0
#pdf 1 21 2.954735e-01 4.790538e-01 5000.0 9.552748e-02 2.055599e-02
</event>
<event>
4 7 1.0 5000.0 7.905138e-03 7.739137e-02
 1 -1 0 0 101   0  0.000000e+00  0.000000e+00  1.504105e+03  1.504105e+03 0.0 0.0 9.0
21 -1 0 0 103 101  0.000000e+00  0.000000e+00 -3.159787e+03  3.159787e+03 0.0 0.0 9.0
22  1 1 2   0   0 -2.396668e+02 -6.089369e+02  1.396564e+03  1.542282e+03 0.0 0.0 9.0
 1  1 1 2 103   0  2.396668e+02  6.089369e+02 -3.052245e+03  3.121609e+03 0.0047 0.0 9.0
#pdf 1 21 2.314008e-01 4.861210e-01 5000.0 1.439387e-01 1.910616e-02
</event>
<event>
4 7 1.0 5000.0 7.905138e-03 7.739137e-02
 1 -1 0 0 101   0  0.000000e+00  0.000000e+00  2.143529e+03  2.143529e+03 0.0 0.0 9.0
21 -1 0 0 103 101  0.000000e+00  0.000000e+00 -2.923771e+03  2.923771e+03 0.0 0.0 9.0
22  1 1 2   0   0 -9.533459e+02  2.059524e+03  6.793647e+02  2.368975e+03 0.0 0.0 9.0
 1  1 1 2 103   0  9.533459e+02 -2.059524e+03 -1.459606e+03  2.698325e+03 0.0047 0.0 9.0
#pdf 1 21 3.297737e-01 4.498109e-01 5000.0 7.496290e-02 2.746227e-02
</event>
<event>
4 7 1.0 5000.0 7.905138e-03 7.739137e-02
 1 -1 0 0 101   0  0.000000e+00  0.000000e+00  2.687854e+03  2.687854e+03 0.0 0.0 9.0
21 -1 0 0 103 101  0.000000e+00  0.000000e+00 -1.793603e+03  1.793603e+03 0.0 0.0 9.0
 1  1 1 2 103   0  2.160488e+03 -3.088066e+02  6.926318e+02  2.289718e+03 0.0047 0.0 9.0
22  1 1 2   0   0 -2.160488e+03  3.088066e+02  2.016193e+02  2.191739e+03 0.0 0.0 9.0
#pdf 1 21 4.135160e-01 2.759389e-01 5000.0 3.830245e-02 1.088404e-01
</event>
<event>
4 7 1.0 5000.0 7.905138e-03 7.739137e-02
 1 -1 0 0 101   0  0.000000e+00  0.000000e+00  2.135385e+03  2.135385e+03 0.0 0.0 9.0
21 -1 0 0 103 101  0.000000e+00  0.000000e+00 -3.032160e+03  3.032160e+03 0.0 0.0 9.0
22  1 1 2   0   0 -1.499620e+03  1.156809e+03  1.277137e+03  2.284326e+03 0.0 0.0 9.0
 1  1 1 2 103   0  1.499620e+03 -1.156809e+03 -2.173912e+03  2.883220e+03 0.0047 0.0 9.0
#pdf 1 21 3.285208e-01 4.664862e-01 5000.0 7.565299e-02 2.333993e-02
</event>
<event>
4 7 1.0 5000.0 7.905138e-03 7.739137e-02
 1 -1 0 0 101   0  0.000000e+00  0.000000e+00  3.651158e+03  3.651158e+03 0.0 0.0 9.0
21 -1 0 0 103 101  0.000000e+00  0.000000e+00 -1.718771e+03  1.718771e+03 0.0 0.0 9.0
 1  1 1 2 103   0  1.182596e+03  7.038165e+02 -1.277333e+03  1.877624e+03 0.0047 0.0 9.0
22  1 1 2   0   0 -1.182596e+03 -7.038165e+02  3.209720e+03  3.492305e+03 0.0 0.0 9.0
#pdf 1 21 5.617166e-01 2.644263e-01 5000.0 8.011194e-03 1.172720e-01
</event>
<event>
4 7 1.0 5000.0 7.905138e-03 7.739137e-02
 1 -1 0 0 101   0  0.000000e+00  0.000000e+00  1.913710e+03  1.913710e+03 0.0 0.0 9.0
21 -1 0 0 103 101  0.000000e+00  0.000000e+00 -3.461232e+03  3.461232e+03 0.0 0.0 9.0
 1  1 1 2 103   0  1.299630e+02 -2.462272e+03 -1.544020e+03  2.909239e+03 0.0047 0.0 9.0
22  1 1 2   0   0 -1.299630e+02  2.462272e+03 -3.502532e+00  2.465702e+03 0.0 0.0 9.0
#pdf 1 21 2.944168e-01 5.324973e-01 5000.0 9.621822e-02 1.143992e-02
</event>
<event>
4 7 1.0 5000.0 7.905138e-03 7.739137e-02
21 -1 0 0 103 101  0.000000e+00  0.000000e+00  3.187275e+03  3.187275e+03 0.0 0.0 9.0
 1 -1 0 0 101   0  0.000000e+00  0.000000e+00 -1.802851e+03  1.802851e+03 0.0 0.0 9.0
 1  1 1 2 103   0  2.064451e+03 -1.154775e+01  1.960220e+03  2.846850e+03 0.0047 0.0 9.0
22  1 1 2   0   0 -2.064451e+03  1.154775e+01 -5.757957e+02  2.143276e+03 0.0 0.0 9.0
#pdf 21 1 4.903500e-01 2.773616e-01 5000.0 3.217094e-03 4.754373e-02
</event>
<event>
4 7 1.0 5000.0 7.905138e-03 7.739137e-02
21 -1 0 0 103 101  0.000000e+00  0.000000e+00  3.062678e+03  3.062678e+03 0.0 0.0 9.0
 1 -1 0 0 101   0  0.000000e+00  0.000000e+00 -2.071944e+03  2.071944e+03 0.0 0.0 9.0
22  1 1 2   0   0 -4.011107e+02 -2.177160e+03  1.720377e+03  2.803678e+03 0.0 0.0 9.0
 1  1 1 2 103   0  4.011107e+02  2.177160e+03 -7.296431e+02  2.330943e+03 0.0047 0.0 9.0
#pdf 21 1 4.711812e-01 3.187606e-01 5000.0 4.168583e-03 2.862449e-02
</event>
<event>
4 7 1.0 5000.0 7.905138e-03 7.739137e-02
21 -1 0 0 103 101  0.000000e+00  0.000000e+00  2.759363e+03  2.759363e+03 0.0 0.0 9.0
 1 -1 0 0 101   0  0.000000e+00  0.000000e+00 -2.372988e+03  2.372988e+03 0.0 0.0 9.0
 1  1 1 2 103   0  3.831960e+01  2.558204e+03  2.386994e+02  2.569602e+03 0.0047 0.0 9.0
22  1 1 2   0   0 -3.831960e+01 -2.558204e+03  1.476754e+02  2.562749e+03 0.0 0.0 9.0
#pdf 21 1 4.245174e-01 3.650751e-01 5000.0 7.673675e-03 1.620557e-02
</event>
<event>
4 7 1.0 5000.0 7.905138e-03 7.739137e-02
21 -1 0 0 103 101  0.000000e+00  0.000000e+00  3.167758e+03  3.167758e+03 0.0 0.0 9.0
 1 -1 0 0 101   0  0.000000e+00  0.000000e+00 -1.659630e+03  1.659630e+03 0.0 0.0 9.0
 1  1 1 2 103   0  6.392410e+02  1.898888e+03 -4.195328e+02  2.047050e+03 0.0047 0.0 9.0
22  1 1 2   0   0 -6.392410e+02 -1.898888e+03  1.927661e+03  2.780338e+03 0.0 0.0 9.0
#pdf 21 1 4.873474e-01 2.553277e-01 5000.0 3.351007e-03 6.246098e-02
</event>
<event>
4 7 1.0 5000.0 7.905138e-03 7.739137e-02
 1 -1 0 0 101   0  0.000000e+00  0.000000e+00  2.042522e+03  2.042522e+03 0.0 0.0 9.0
21 -1 0 0 103 101  0.000000e+00  0.000000e+00 -3.103041e+03  3.103041e+03 0.0 0.0 9.0
22  1 1 2   0   0 -1.247392e+02  2.075397e+03  9.204633e+02  2.273782e+03 0.0 0.0 9.0
 1  1 1 2 103   0  1.247392e+02 -2.075397e+03 -1.980982e+03  2.871780e+03 0.0047 0.0 9.0
#pdf 1 21 3.142341e-01 4.773909e-01 5000.0 8.384130e-02 2.090936e-02
</event>
<event>
4 7 1.0 5000.0 7.905138e-03 7.739137e-02
 1 -1 0 0 101   0  0.000000e+00  0.000000e+00  2.176012e+03  2.176012e+03 0.0 0.0 9.0
21 -1 0 0 103 101  0.000000e+00  0.000000e+00 -2.715058e+03  2.715058e+03 0.0 0.0 9.0
22  1 1 2   0   0  1.270820e+03 -7.527678e+02 -2.211731e+03  2.659586e+03 0.0 0.0 9.0
 1  1 1 2 103   0 -1.270820e+03  7.527678e+02  1.672685e+03  2.231484e+03 0.0047 0.0 9.0
#pdf 1 21 3.347711e-01 4.177012e-01 5000.0 7.225604e-02 3.691190e-02
</event>
<event>
4 7 1.0 5000.0 7.905138e-03 7.739137e-02
21 -1 0 0 103 101  0.000000e+00  0.000000e+00  1.706652e+03  1.706652e+03 0.0 0.0 9.0
 1 -1 0 0 101   0  0.000000e+00  0.000000e+00 -3.701192e+03  3.701192e+03 0.0 0.0 9.0
22  1 1 2   0   0 -1.405302e+03 -1.320152e+03  7.371399e+02  2.064231e+03 0.0 0.0 9.0
 1  1 1 2 103   0  1.405302e+03  1.320152e+03 -2.731680e+03  3.343613e+03 0.0047 0.0 9.0
#pdf 21 1 2.625619e-01 5.694142e-01 5000.0 5.705361e-02 1.034151e-03
</event>
<event>
4 7 1.0 5000.0 7.905138e-03 7.739137e-02
 1 -1 0 0 101   0  0.000000e+00  0.000000e+00  1.382598e+03  1.382598e+03 0.0 0.0 9.0
21 -1 0 0 103 101  0.000000e+00  0.000000e+00 -4.437266e+03  4.437266e+03 0.0 0.0 9.0
 1  1 1 2 103   0  1.880443e+03  1.170202e+03 -2.246339e+02  2.226185e+03 0.0047 0.0 9.0
22  1 1 2   0   0 -1.880443e+03 -1.170202e+03 -2.830034e+03  3.593679e+03 0.0 0.0 9.0
#pdf 1 21 2.127074e-01 6.826563e-01 5000.0 1.607376e-01 1.260186e-03
</event>
<event>
4 7 1.0 5000.0 7.905138e-03 7.739137e-02
21 -1 0 0 103 101  0.000000e+00  0.000000e+00  2.334893e+03  2.334893e+03 0.0 0.0 9.0
 1 -1 0 0 101   0  0.000000e+00  0.000000e+00 -2.689689e+03  2.689689e+03 0.0 0.0 9.0
 1  1 1 2 103   0 -1.875481e+03  1.378340e+03 -1.108639e+03  2.578048e+03 0.0047 0.0 9.0
22  1 1 2   0   0  1.875481e+03 -1.378340e+03  7.538430e+02  2.446534e+03 0.0 0.0 9.0
#pdf 21 1 3.592143e-01 4.137983e-01 5000.0 1.741524e-02 8.798122e-03
</event>
<event>
4 7 1.0 5000.0 7.905138e-03 7.739137e-02
 1 -1 0 0 101   0  0.000000e+00  0.000000e+00  2.355718e+03  2.355718e+03 0.0 0.0 9.0
21 -1 0 0 103 101  0.000000e+00  0.000000e+00 -2.636384e+03  2.636384e+03 0.0 0.0 9.0
22  1 1 2   0   0  2.088696e+03 -1.358919e+03 -1.046587e+02  2.494045e+03 0.0 0.0 9.0
 1  1 1 2 103   0 -2.088696e+03  1.358919e+03 -1.760079e+02  2.498057e+03 0.0047 0.0 9.0
#pdf 1 21 3.624181e-01 4.055976e-01 5000.0 5.853903e-02 4.103857e-02
</event>
<event>
4 7 1.0 5000.0 7.905138e-03 7.739137e-02
21 -1 0 0 103 101  0.000000e+00  0.000000e+00  3.213344e+03  3.213344e+03 0.0 0.0 9.0
 1 -1 0 0 101   0  0.000000e+00  0.000000e+00 -1.918918e+03  1.918918e+03 0.0 0.0 9.0
22  1 1 2   0   0 -1.682887e+03  1.081218e+03  2.167765e+03  2.949635e+03 0.0 0.0 9.0
 1  1 1 2 103   0  1.682887e+03 -1.081218e+03 -8.733382e+02  2.182627e+03 0.0047 0.0 9.0
#pdf 21 1 4.943606e-01 2.952181e-01 5000.0 3.045922e-03 3.823035e-02
</event>
<event>
4 7 1.0 5000.0 7.905138e-03 7.739137e-02
 1 -1 0 0 101   0  0.000000e+00  0.000000e+00  2.907283e+03  2.907283e+03 0.0 0.0 9.0
21 -1 0 0 103 101  0.000000e+00  0.000000e+00 -2.136378e+03  2.136378e+03 0.0 0.0 9.0
22  1 1 2   0   0 -9.804961e+02 -1.607344e+03  2.037694e+03  2.774370e+03 0.0 0.0 9.0
 1  1 1 2 103   0  9.804961e+02  1.607344e+03 -1.266790e+03  2.269292e+03 0.0047 0.0 9.0
#pdf 1 21 4.472743e-01 3.286736e-01 5000.0 2.812774e-02 7.556863e-02
</event>
<event>
4 7 1.0 5000.0 7.905138e-03 7.739137e-02
21 -1 0 0 103 101  0.000000e+00  0.000000e+00  2.538721e+03  2.538721e+03 0.0 0.0 9.0
 1 -1 0 0 101   0  0.000000e+00  0.000000e+00 -2.492632e+03  2.492632e+03 0.0 0.0 9.0
22  1 1 2   0   0  1.925350e+03 -6.597417e+02  1.501574e+03  2.529220e+03 0.0 0.0 9.0
 1  1 1 2 103   0 -1.925350e+03  6.597417e+02 -1.455485e+03  2.502133e+03 0.0047 0.0 9.0
#pdf 21 1 3.905724e-01 3.834819e-01 5000.0 1.179815e-02 1.290091e-02
</event>
<event>
4 7 1.0 5000.0 7.905138e-03 7.739137e-02
 1 -1 0 0 101   0  0.000000e+00  0.000000e+00  2.875068e+03  2.875068e+03 0.0 0.0 9.0
21 -1 0 0 103 101  0.000000e+00  0.000000e+00 -2.187601e+03  2.187601e+03 0.0 0.0 9.0
22  1 1 2   0   0 -8.830262e+02 -5.488920e+02 -1.959814e+03  2.218533e+03 0.0 0.0 9.0
 1  1 1 2 103   0  8.830262e+02  5.488920e+02  2.647281e+03  2.844137e+03 0.0047 0.0 9.0
#pdf 1 21 4.423182e-01 3.365540e-01 5000.0 2.948939e-02 7.130821e-02
</event>
<event>
4 7 1.0 5000.0 7.905138e-03 7.739137e-02
 1 -1 0 0 101   0  0.000000e+00  0.000000e+00  2.635533e+03  2.635533e+03 0.0 0.0 9.0
21 -1 0 0 103 101  0.000000e+00  0.000000e+00 -2.329489e+03  2.329489e+03 0.0 0.0 9.0
 1  1 1 2 103   0  3.624022e+02  4.809721e+02  2.561093e+03  2.630944e+03 0.0047 0.0 9.0
22  1 1 2   0   0 -3.624022e+02 -4.809721e+02 -2.255049e+03  2.334077e+03 0.0 0.0 9.0
#pdf 1 21 4.054666e-01 3.583829e-01 5000.0 4.108503e-02 6.040937e-02
</event>
<event>
4 7 1.0 5000.0 7.905138e-03 7.739137e-02
 1 -1 0 0 101   0  0.000000e+00  0.000000e+00  4.930789e+03  4.930789e+03 0.0 0.0 9.0
21 -1 0 0 103 101  0.000000e+00  0.000000e+00 -1.280021e+03  1.280021e+03 0.0 0.0 9.0
 1  1 1 2 103   0  1.599571e+03 -5.971701e+02  4.103380e+03  4.444431e+03 0.0047 0.0 9.0
22  1 1 2   0   0 -1.599571e+03  5.971701e+02 -4.526117e+02  1.766379e+03 0.0 0.0 9.0
#pdf 1 21 7.585829e-01 1.969263e-01 5000.0 2.478442e-04 1.759613e-01
</event>
<event>
4 7 1.0 5000.0 7.905138e-03 7.739137e-02
21 -1 0 0 103 101  0.000000e+00  0.000000e+00  3.041635e+03  3.041635e+03 0.0 0.0 9.0
 1 -1 0 0 101   0  0.000000e+00  0.000000e+00 -1.469003e+03  1.469003e+03 0.0 0.0 9.0
22  1 1 2   0   0  1.319817e+03  8.440257e+01 -9.730574e+02  1.641914e+03 0.0 0.0 9.0
 1  1 1 2 103   0 -1.319817e+03 -8.440257e+01  2.545690e+03  2.868724e+03 0.0047 0.0 9.0
#pdf 21 1 4.679438e-01 2.260004e-01 5000.0 4.352262e-03 9.008856e-02
</event>
<event>
4 7 1.0 5000.0 7.905138e-03 7.739137e-02
21 -1 0 0 103 101  0.000000e+00  0.000000e+00  2.932444e+03  2.932444e+03 0.0 0.0 9.0
 1 -1 0 0 101   0  0.000000e+00  0.000000e+00 -1.950761e+03  1.950761e+03 0.0 0.0 9.0
22  1 1 2   0   0  4.578826e+02  2.304743e+03  3.544609e+01  2.350053e+03 0.0 0.0 9.0
 1  1 1 2 103   0 -4.578826e+02 -2.304743e+03  9.462364e+02  2.533152e+03 0.0047 0.0 9.0
#pdf 21 1 4.511452e-01 3.001171e-01 5000.0 5.436228e-03 3.595829e-02
</event>
<event>
4 7 1.0 5000.0 7.905138e-03 7.739137e-02
 1 -1 0 0 101   0  0.000000e+00  0.000000e+00  2.159026e+03  2.159026e+03 0.0 0.0 9.0
21 -1 0 0 103 101  0.000000e+00  0.000000e+00 -2.994029e+03  2.994029e+03 0.0 0.0 9.0
 1  1 1 2 103   0  2.373934e+03  6.347759e+02 -1.078682e+03  2.683665e+03 0.0047 0.0 9.0
22  1 1 2   0   0 -2.373934e+03 -6.347759e+02  2.436787e+02  2.469389e+03 0.0 0.0 9.0
#pdf 1 21 3.321578e-01 4.606199e-01 5000.0 7.366236e-02 2.472932e-02
</event>
<event>
4 7 1.0 5000.0 7.905138e-03 7.739137e-02
21 -1 0 0 103 101  0.000000e+00  0.000000e+00  1.937945e+03  1.937945e+03 0.0 0.0 9.0
 1 -1 0 0 101   0  0.000000e+00  0.000000e+00 -3.255892e+03  3.255892e+03 0.0 0.0 9.0
22  1 1 2   0   0  1.671838e+03  1.273979e+03  7.629492e+02  2.236103e+03 0.0 0.0 9.0
 1  1 1 2 103   0 -1.671838e+03 -1.273979e+03 -2.080896e+03  2.957734e+03 0.0047 0.0 9.0
#pdf 21 1 2.981455e-01 5.009065e-01 5000.0 3.686512e-02 2.783166e-03
</event>
<event>
4 7 1.0 5000.0 7.905138e-03 7.739137e-02
 1 -1 0 0 101   0  0.000000e+00  0.000000e+00  3.374886e+03  3.374886e+03 0.0 0.0 9.0
21 -1 0 0 103 101  0.000000e+00  0.000000e+00 -1.864355e+03  1.864355e+03 0.0 0.0 9.0
22  1 1 2   0   0  1.001664e+03 -1.891466e+02 -1.638288e+03  1.929532e+03 0.0 0.0 9.0
 1  1 1 2 103   0 -1.001664e+03  1.891466e+02  3.148819e+03  3.309708e+03 0.0047 0.0 9.0
#pdf 1 21 5.192132e-01 2.868238e-01 5000.0 1.333106e-02 1.012737e-01
</event>
<event>
4 7 1.0 5000.0 7.905138e-03 7.739137e-02
 1 -1 0 0 101   0  0.000000e+00  0.000000e+00  3.156024e+03  3.156024e+03 0.0 0.0 9.0
21 -1 0 0 103 101  0.000000e+00  0.000000e+00 -2.003876e+03  2.003876e+03 0.0 0.0 9.0
 1  1 1 2 103   0  1.560815e+03 -1.417066e+03  1.982742e+03  2.894043e+03 0.0047 0.0 9.0
22  1 1 2   0   0 -1.560815e+03  1.417066e+03 -8.305948e+02  2.265857e+03 0.0 0.0 9.0
#pdf 1 21 4.855421e-01 3.082886e-01 5000.0 1.922182e-02 8.743399e-02
</event>
<event>
4 7 1.0 5000.0 7.905138e-03 7.739137e-02
21 -1 0 0 103 101  0.000000e+00  0.000000e+00  2.808351e+03  2.808351e+03 0.0 0.0 9.0
 1 -1 0 0 101   0  0.000000e+00  0.000000e+00 -2.115959e+03  2.115959e+03 0.0 0.0 9.0
22  1 1 2   0   0 -1.835165e+03 -1.218367e+03  1.400753e+03  2.610433e+03 0.0 0.0 9.0
 1  1 1 2 103   0  1.835165e+03  1.218367e+03 -7.083612e+02  2.313877e+03 0.0047 0.0 9.0
#pdf 21 1 4.320540e-01 3.255321e-01 5000.0 6.965731e-03 2.634767e-02
</event>
<event>
4 7 1.0 5000.0 7.905138e-03 7.739137e-02
21 -1 0 0 103 101  0.000000e+00  0.000000e+00  2.331558e+03  2.331558e+03 0.0 0.0 9.0
 1 -1 0 0 101   0  0.000000e+00  0.000000e+00 -2.679491e+03  2.679491e+03 0.0 0.0 9.0
22  1 1 2   0   0  6.525438e+02 -2.169728e+03 -1.231915e+03  2.578982e+03 0.0 0.0 9.0
 1  1 1 2 103   0 -6.525438e+02  2.169728e+03  8.839816e+02  2.432068e+03 0.0047 0.0 9.0
#pdf 21 1 3.587013e-01 4.122295e-01 5000.0 1.752509e-02 8.975451e-03
</event>
<event>
4 7 1.0 5000.0 7.905138e-03 7.739137e-02
21 -1 0 0 103 101  0.000000e+00  0.000000e+00  2.046975e+03  2.046975e+03 0.0 0.0 9.0
 1 -1 0 0 101   0  0.000000e+00  0.000000e+00 -3.093194e+03  3.093194e+03 0.0 0.0 9.0
 1  1 1 2 103   0  1.222195e+03  8.040260e+01 -2.768165e+03  3.027038e+03 0.0047 0.0 9.0
22  1 1 2   0   0 -1.222195e+03 -8.040260e+01  1.721945e+03  2.113130e+03 0.0 0.0 9.0
#pdf 21 1 3.149192e-01 4.758760e-01 5000.0 3.001139e-02 3.914356e-03
</event>
<event>
4 7 1.0 5000.0 7.905138e-03 7.739137e-02
21 -1 0 0 103 101  0.000000e+00  0.000000e+00  3.402482e+03  3.402482e+03 0.0 0.0 9.0
 1 -1 0 0 101   0  0.000000e+00  0.000000e+00 -1.897204e+03  1.897204e+03 0.0 0.0 9.0
22  1 1 2   0   0  6.681970e+02 -1.110993e+03  3.031537e+03  3.297122e+03 0.0 0.0 9.0
 1  1 1 2 103   0 -6.681970e+02  1.110993e+03 -1.526260e+03  2.002564e+03 0.0047 0.0 9.0
#pdf 21 1 5.234587e-01 2.918775e-01 5000.0 2.029984e-03 3.982255e-02
</event>
<event>
4 7 1.0 5000.0 7.905138e-03 7.739137e-02
 1 -1 0 0 101   0  0.000000e+00  0.000000e+00  2.244370e+03  2.244370e+03 0.0 0.0 9.0
21 -1 0 0 103 101  0.000000e+00  0.000000e+00 -2.838542e+03  2.838542e+03 0.0 0.0 9.0
 1  1 1 2 103   0 -1.522344e+03  1.887967e+03  4.068745e+02  2.459166e+03 0.0047 0.0 9.0
22  1 1 2   0   0  1.522344e+03 -1.887967e+03 -1.001046e+03  2.623746e+03 0.0 0.0 9.0
#pdf 1 21 3.452877e-01 4.366987e-01 5000.0 6.679528e-02 3.107909e-02
</event>
<event>
4 7 1.0 5000.0 7.905138e-03 7.739137e-02
21 -1 0 0 103 101  0.000000e+00  0.000000e+00  2.592150e+03  2.592150e+03 0.0 0.0 9.0
 1 -1 0 0 101   0  0.000000e+00  0.000000e+00 -2.627508e+03  2.627508e+03 0.0 0.0 9.0
 1  1 1 2 103   0 -1.979154e+02 -7.310834e+02 -2.515183e+03  2.626747e+03 0.0047 0.0 9.0
22  1 1 2   0   0  1.979154e+02  7.310834e+02  2.479825e+03  2.592911e+03 0.0 0.0 9.0
#pdf 21 1 3.987923e-01 4.042319e-01 5000.0 1.064015e-02 9.935476e-03
</event>
<event>
4 7 1.0 5000.0 7.905138e-03 7.739137e-02
21 -1 0 0 103 101  0.000000e+00  0.000000e+00  1.929611e+03  1.929611e+03 0.0 0.0 9.0
 1 -1 0 0 101   0  0.000000e+00  0.000000e+00 -3.159854e+03  3.159854e+03 0.0 0.0 9.0
22  1 1 2   0   0 -1.027583e+03  1.125997e+03 -2.617036e+03  3.028642e+03 0.0 0.0 9.0
 1  1 1 2 103   0  1.027583e+03 -1.125997e+03  1.386793e+03  2.060823e+03 0.0047 0.0 9.0
#pdf 21 1 2.968632e-01 4.861314e-01 5000.0 3.746042e-02 3.406758e-03
</event>
<event>
4 7 1.0 5000.0 7.905138e-03 7.739137e-02
 1 -1 0 0 101   0  0.000000e+00  0.000000e+00  2.594606e+03  2.594606e+03 0.0 0.0 9.0
21 -1 0 0 103 101  0.000000e+00  0.000000e+00 -2.419154e+03  2.419154e+03 0.0 0.0 9.0
22  1 1 2   0   0  4.132812e+02  8.696036e+02 -2.226642e+03  2.425890e+03 0.0 0.0 9.0
 1  1 1 2 103   0 -4.132812e+02 -8.696036e+02  2.402094e+03  2.587869e+03 0.0047 0.0 9.0
#pdf 1 21 3.991701e-01 3.721775e-01 5000.0 4.336429e-02 5.417566e-02
</event>
<event>
4 7 1.0 5000.0 7.905138e-03 7.739137e-02
21 -1 0 0 103 101  0.000000e+00  0.000000e+00  2.649464e+03  2.649464e+03 0.0 0.0 9.0
 1 -1 0 0 101   0  0.000000e+00  0.000000e+00 -2.306206e+03  2.306206e+03 0.0 0.0 9.0
22  1 1 2   0   0 -2.648245e+02 -2.380534e+03  7.839474e+02  2.520247e+03 0.0 0.0 9.0
 1  1 1 2 103   0  2.648245e+02  2.380534e+03 -4.406895e+02  2.435422e+03 0.0047 0.0 9.0
#pdf 21 1 4.076098e-01 3.548009e-01 5000.0 9.519189e-03 1.838994e-02
</event>
<event>
4 7 1.0 5000.0 7.905138e-03 7.739137e-02
 1 -1 0 0 101   0  0.000000e+00  0.000000e+00  2.575344e+03  2.575344e+03 0.0 0.0 9.0
21 -1 0 0 103 101  0.000000e+00  0.000000e+00 -2.410324e+03  2.410324e+03 0.0 0.0 9.0
 1  1 1 2 103   0 -5.964585e+02 -3.038993e+02 -2.318659e+03  2.413358e+03 0.0047 0.0 9.0
22  1 1 2   0   0  5.964585e+02  3.038993e+02  2.483679e+03  2.572310e+03 0.0 0.0 9.0
#pdf 1 21 3.962068e-01 3.708190e-01 5000.0 4.446828e-02 5.476436e-02
</event>
<event>
4 7 1.0 5000.0 7.905138e-03 7.739137e-02
 1 -1 0 0 101   0  0.000000e+00  0.000000e+00  1.544490e+03  1.544490e+03 0.0 0.0 9.0
21 -1 0 0 103 101  0.000000e+00  0.000000e+00 -4.061518e+03  4.061518e+03 0.0 0.0 9.0
22  1 1 2   0   0  1.656928e+03  2.769591e+02 -3.337495e+03  3.736441e+03 0.0 0.0 9.0
 1  1 1 2 103   0 -1.656928e+03 -2.769591e+02  8.204667e+02  1.869568e+03 0.0047 0.0 9.0
#pdf 1 21 2.376139e-01 6.248489e-01 5000.0 1.386315e-01 3.325723e-03
</event>
<event>
4 7 1.0 5000.0 7.905138e-03 7.739137e-02
21 -1 0 0 103 101  0.000000e+00  0.000000e+00  2.707050e+03  2.707050e+03 0.0 0.0 9.0
 1 -1 0 0 101   0  0.000000e+00  0.000000e+00 -2.508146e+03  2.508146e+03 0.0 0.0 9.0
22  1 1 2   0   0 -1.164164e+03 -7.163680e+02  2.319448e+03  2.692267e+03 0.0 0.0 9.0
 1  1 1 2 103   0  1.164164e+03  7.163680e+02 -2.120544e+03  2.522928e+03 0.0047 0.0 9.0
#pdf 21 1 4.164692e-01 3.858685e-01 5000.0 8.504268e-03 1.251902e-02
</event>
<event>
4 7 1.0 5000.0 7.905138e-03 7.739137e-02
21 -1 0 0 103 101  0.000000e+00  0.000000e+00  4.796056e+03  4.796056e+03 0.0 0.0 9.0
 1 -1 0 0 101   0  0.000000e+00  0.000000e+00 -1.314861e+03  1.314861e+03 0.0 0.0 9.0
 1  1 1 2 103   0  2.510236e+03 -6.886848e+01  1.727496e+03  3.047994e+03 0.0047 0.0 9.0
22  1 1 2   0   0 -2.510236e+03  6.886848e+01  1.753700e+03  3.062922e+03 0.0 0.0 9.0
#pdf 21 1 7.378548e-01 2.022862e-01 5000.0 4.855298e-05 1.221027e-01
</event>
<event>
4 7 1.0 5000.0 7.905138e-03 7.739137e-02
21 -1 0 0 103 101  0.000000e+00  0.000000e+00  2.647803e+03  2.647803e+03 0.0 0.0 9.0
 1 -1 0 0 101   0  0.000000e+00  0.000000e+00 -1.964079e+03  1.964079e+03 0.0 0.0 9.0
 1  1 1 2 103   0  5.249584e+02  3.776876e+02  2.553137e+03  2.633769e+03 0.0047 0.0 9.0
22  1 1 2   0   0 -5.249584e+02 -3.776876e+02 -1.869413e+03  1.978114e+03 0.0 0.0 9.0
#pdf 21 1 4.073544e-01 3.021660e-01 5000.0 9.550140e-03 3.508912e-02
</event>
<event>
4 7 1.0 5000.0 7.905138e-03 7.739137e-02
21 -1 0 0 103 101  0.000000e+00  0.000000e+00  1.844332e+03  1.844332e+03 0.0 0.0 9.0
 1 -1 0 0 101   0  0.000000e+00  0.000000e+00 -3.253112e+03  3.253112e+03 0.0 0.0 9.0
 1  1 1 2 103   0 -1.810753e+03  1.287606e+03  3.684443e+02  2.252223e+03 0.0047 0.0 9.0
22  1 1 2   0   0  1.810753e+03 -1.287606e+03 -1.777225e+03  2.845221e+03 0.0 0.0 9.0
#pdf 21 1 2.837434e-01 5.004788e-01 5000.0 4.395294e-02 2.799708e-03
</event>
<event>
4 7 1.0 5000.0 7.905138e-03 7.739137e-02
 1 -1 0 0 101   0  0.000000e+00  0.000000e+00  2.742168e+03  2.742168e+03 0.0 0.0 9.0
21 -1 0 0 103 101  0.000000e+00  0.000000e+00 -2.386819e+03  2.386819e+03 0.0 0.0 9.0
22  1 1 2   0   0  2.539617e+03  3.055938e+02  2.227316e+02  2.567615e+03 0.0 0.0 9.0
 1  1 1 2 103   0 -2.539617e+03 -3.055938e+02  1.326169e+02  2.561372e+03 0.0047 0.0 9.0
#pdf 1 21 4.218720e-01 3.672030e-01 5000.0 3.556374e-02 5.636860e-02
</event>
<event>
4 7 1.0 5000.0 7.905138e-03 7.739137e-02
21 -1 0 0 103 101  0.000000e+00  0.000000e+00  2.495575e+03  2.495575e+03 0.0 0.0 9.0
 1 -1 0 0 101   0  0.000000e+00  0.000000e+00 -2.417465e+03  2.417465e+03 0.0 0.0 9.0
22  1 1 2   0   0  1.186885e+03  6.931346e+02 -1.996843e+03  2.424152e+03 0.0 0.0 9.0
 1  1 1 2 103   0 -1.186885e+03 -6.931346e+02  2.074953e+03  2.488887e+03 0.0047 0.0 9.0
#pdf 21 1 3.839345e-01 3.719177e-01 5000.0 1.282769e-02 1.488065e-02
</event>
<event>
4 7 1.0 5000.0 7.905138e-03 7.739137e-02
 1 -1 0 0 101   0  0.000000e+00  0.000000e+00  2.304890e+03  2.304890e+03 0.0 0.0 9.0
21 -1 0 0 103 101  0.000000e+00  0.000000e+00 -2.798285e+03  2.798285e+03 0.0 0.0 9.0
 1  1 1 2 103   0 -1.556651e+03  3.900192e+02  1.730933e+03  2.360383e+03 0.0047 0.0 9.0
22  1 1 2   0   0  1.556651e+03 -3.900192e+02 -2.224327e+03  2.742793e+03 0.0 0.0 9.0
#pdf 1 21 3.545985e-01 4.305054e-01 5000.0 6.220603e-02 3.289306e-02
</event>
<event>
4 7 1.0 5000.0 7.905138e-03 7.739137e-02
21 -1 0 0 103 101  0.000000e+00  0.000000e+00  3.979553e+03  3.979553e+03 0.0 0.0 9.0
 1 -1 0 0 101   0  0.000000e+00  0.000000e+00 -1.618580e+03  1.618580e+03 0.0 0.0 9.0
22  1 1 2   0   0 -2.234686e+03 -3.697332e+02  2.443131e+03  3.331578e+03 0.0 0.0 9.0
 1  1 1 2 103   0  2.234686e+03  3.697332e+02 -8.215781e+01  2.266556e+03 0.0047 0.0 9.0
#pdf 21 1 6.122390e-01 2.490124e-01 5000.0 5.265342e-04 6.755034e-02
</event>
<event>
4 7 1.0 5000.0 7.905138e-03 7.739137e-02
21 -1 0 0 103 101  0.000000e+00  0.000000e+00  1.762861e+03  1.762861e+03 0.0 0.0 9.0
 1 -1 0 0 101   0  0.000000e+00  0.000000e+00 -3.550996e+03  3.550996e+03 0.0 0.0 9.0
 1  1 1 2 103   0  1.230831e+03  7.150723e+02  1.290939e+03  1.921665e+03 0.0047 0.0 9.0
22  1 1 2   0   0 -1.230831e+03 -7.150723e+02 -3.079073e+03  3.392192e+03 0.0 0.0 9.0
#pdf 21 1 2.712094e-01 5.463070e-01 5000.0 5.127719e-02 1.459866e-03
</event>
<event>
4 7 1.0 5000.0 7.905138e-03 7.739137e-02
 1 -1 0 0 101   0  0.000000e+00  0.000000e+00  1.987813e+03  1.987813e+03 0.0 0.0 9.0
21 -1 0 0 103 101  0.000000e+00  0.000000e+00 -3.149466e+03  3.149466e+03 0.0 0.0 9.0
 1  1 1 2 103   0 -1.027767e+03 -2.026791e+02 -2.913506e+03  3.096110e+03 0.0047 0.0 9.0
22  1 1 2   0   0  1.027767e+03  2.026791e+02  1.751853e+03  2.041169e+03 0.0 0.0 9.0
#pdf 1 21 3.058174e-01 4.845333e-01 5000.0 8.895677e-02 1.942467e-02
</event>
<event>
4 7 1.0 5000.0 7.905138e-03 7.739137e-02
 1 -1 0 0 101   0  0.000000e+00  0.000000e+00  1.545398e+03  1.545398e+03 0.0 0.0 9.0
21 -1 0 0 103 101  0.000000e+00  0.000000e+00 -3.946823e+03  3.946823e+03 0.0 0.0 9.0
 1  1 1 2 103   0  1.827427e+03 -3.765707e+02  5.984427e+02  1.959446e+03 0.0047 0.0 9.0
22  1 1 2   0   0 -1.827427e+03  3.765707e+02 -2.999868e+03  3.532775e+03 0.0 0.0 9.0
#pdf 1 21 2.377535e-01 6.072036e-01 5000.0 1.385138e-01 4.322824e-03
</event>
<event>
4 7 1.0 5000.0 7.905138e-03 7.739137e-02
 1 -1 0 0 101   0  0.000000e+00  0.000000e+00  2.385418e+03  2.385418e+03 0.0 0.0 9.0
21 -1 0 0 103 101  0.000000e+00  0.000000e+00 -2.613338e+03  2.613338e+03 0.0 0.0 9.0
 1  1 1 2 103   0 -2.024521e+03  2.369017e+02 -1.557368e+03  2.565191e+03 0.0047 0.0 9.0
22  1 1 2   0   0  2.024521e+03 -2.369017e+02  1.329448e+03  2.433566e+03 0.0 0.0 9.0
#pdf 1 21 3.669874e-01 4.020520e-01 5000.0 5.646548e-02 4.230983e-02
</event>
<event>
4 7 1.0 5000.0 7.905138e-03 7.739137e-02
21 -1 0 0 103 101  0.000000e+00  0.000000e+00  3.864103e+03  3.864103e+03 0.0 0.0 9.0
 1 -1 0 0 101   0  0.000000e+00  0.000000e+00 -1.401212e+03  1.401212e+03 0.0 0.0 9.0
 1  1 1 2 103   0 -1.746448e+03  1.488804e+03  1.666426e+03  2.836123e+03 0.0047 0.0 9.0
22  1 1 2   0   0  1.746448e+03 -1.488804e+03  7.964657e+02  2.429192e+03 0.0 0.0 9.0
#pdf 21 1 5.944774e-01 2.155711e-01 5000.0 7.006124e-04 1.029514e-01
</event>
<event>
4 7 1.0 5000.0 7.905138e-03 7.739137e-02
 1 -1 0 0 101   0  0.000000e+00  0.000000e+00  3.452746e+03  3.452746e+03 0.0 0.0 9.0
21 -1 0 0 103 101  0.000000e+00  0.000000e+00 -1.830938e+03  1.830938e+03 0.0 0.0 9.0
22  1 1 2   0   0  2.036341e+03 -1.451255e+03  5.350289e+02  2.557163e+03 0.0 0.0 9.0
 1  1 1 2 103   0 -2.036341e+03  1.451255e+03  1.086780e+03  2.726521e+03 0.0047 0.0 9.0
#pdf 1 21 5.311918e-01 2.816827e-01 5000.0 1.161673e-02 1.047974e-01
</event>
<event>
4 7 1.0 5000.0 7.905138e-03 7.739137e-02
 1 -1 0 0 101   0  0.000000e+00  0.000000e+00  2.074644e+03  2.074644e+03 0.0 0.0 9.0
21 -1 0 0 103 101  0.000000e+00  0.000000e+00 -3.012889e+03  3.012889e+03 0.0 0.0 9.0
 1  1 1 2 103   0 -1.416005e+03 -4.507144e+02  1.576552e+03  2.166502e+03 0.0047 0.0 9.0
22  1 1 2   0   0  1.416005e+03  4.507144e+02 -2.514798e+03  2.921031e+03 0.0 0.0 9.0
#pdf 1 21 3.191759e-01 4.635214e-01 5000.0 8.094153e-02 2.403382e-02
</event>
<event>
4 7 1.0 5000.0 7.905138e-03 7.739137e-02
21 -1 0 0 103 101  0.000000e+00  0.000000e+00  1.428156e+03  1.428156e+03 0.0 0.0 9.0
 1 -1 0 0 101   0  0.000000e+00  0.000000e+00 -4.433074e+03  4.433074e+03 0.0 0.0 9.0
22  1 1 2   0   0  1.414273e+03 -1.549883e+02 -3.919602e+03  4.169829e+03 0.0 0.0 9.0
 1  1 1 2 103   0 -1.414273e+03  1.549883e+02  9.146843e+02  1.691401e+03 0.0047 0.0 9.0
#pdf 21 1 2.197163e-01 6.820113e-01 5000.0 9.763087e-02 1.537993e-04
</event>
<event>
4 7 1.0 5000.0 7.905138e-03 7.739137e-02
 1 -1 0 0 101   0  0.000000e+00  0.000000e+00  2.602266e+03  2.602266e+03 0.0 0.0 9.0
21 -1 0 0 103 101  0.000000e+00  0.000000e+00 -2.286439e+03  2.286439e+03 0.0 0.0 9.0
22  1 1 2   0   0 -5.846664e+02  2.274711e+03  8.179104e+02  2.486990e+03 0.0 0.0 9.0
 1  1 1 2 103   0  5.846664e+02 -2.274711e+03 -5.020840e+02  2.401715e+03 0.0047 0.0 9.0
#pdf 1 21 4.003486e-01 3.517599e-01 5000.0 4.293082e-02 6.358211e-02
</event>
<event>
4 7 1.0 5000.0 7.905138e-03 7.739137e-02
 1 -1 0 0 101   0  0.000000e+00  0.000000e+00  2.750952e+03  2.750952e+03 0.0 0.0 9.0
21 -1 0 0 103 101  0.000000e+00  0.000000e+00 -2.146271e+03  2.146271e+03 0.0 0.0 9.0
 1  1 1 2 103   0  1.535291e+03 -1.995010e+02 -1.584898e+03  2.215586e+03 0.0047 0.0 9.0
22  1 1 2   0   0 -1.535291e+03  1.995010e+02  2.189579e+03  2.681637e+03 0.0 0.0 9.0
#pdf 1 21 4.232233e-01 3.301955e-01 5000.0 3.513490e-02 7.473158e-02
</event>
<event>
4 7 1.0 5000.0 7.905138e-03 7.739137e-02
 1 -1 0 0 101   0  0.000000e+00  0.000000e+00  1.821413e+03  1.821413e+03 0.0 0.0 9.0
21 -1 0 0 103 101  0.000000e+00  0.000000e+00 -3.439739e+03  3.439739e+03 0.0 0.0 9.0
22  1 1 2   0   0 -5.146702e+02  2.404364e+03 -3.169726e+02  2.479178e+03 0.0 0.0 9.0
 1  1 1 2 103   0  5.146702e+02 -2.404364e+03 -1.301354e+03  2.781973e+03 0.0047 0.0 9.0
#pdf 1 21 2.802173e-01 5.291906e-01 5000.0 1.058181e-01 1.189115e-02
</event>
<event>
4 7 1.0 5000.0 7.905138e-03 7.739137e-02
 1 -1 0 0 101   0  0.000000e+00  0.000000e+00  3.477295e+03  3.477295e+03 0.0 0.0 9.0
21 -1 0 0 103 101  0.000000e+00  0.000000e+00 -1.799042e+03  1.799042e+03 0.0 0.0 9.0
22  1 1 2   0   0  2.147808e+03  1.270527e+03  1.017147e+03  2.694792e+03 0.0 0.0 9.0
 1  1 1 2 103   0 -2.147808e+03 -1.270527e+03  6.611060e+02  2.581546e+03 0.0047 0.0 9.0
#pdf 1 21 5.349685e-01 2.767758e-01 5000.0 1.110972e-02 1.082443e-01
</event>
<event>
4 7 1.0 5000.0 7.905138e-03 7.739137e-02
 1 -1 0 0 101   0  0.000000e+00  0.000000e+00  2.761314e+03  2.761314e+03 0.0 0.0 9.0
21 -1 0 0 103 101  0.000000e+00  0.000000e+00 -2.201946e+03  2.201946e+03 0.0 0.0 9.0
22  1 1 2   0   0  1.565424e+03 -8.932167e+02 -1.413925e+03  2.290758e+03 0.0 0.0 9.0
 1  1 1 2 103   0 -1.565424e+03  8.932167e+02  1.973293e+03  2.672503e+03 0.0047 0.0 9.0
#pdf 1 21 4.248176e-01 3.387610e-01 5000.0 3.463396e-02 7.014777e-02
</event>
<event>
4 7 1.0 5000.0 7.905138e-03 7.739137e-02
21 -1 0 0 103 101  0.000000e+00  0.000000e+00  2.634408e+03  2.634408e+03 0.0 0.0 9.0
 1 -1 0 0 101   0  0.000000e+00  0.000000e+00 -2.390486e+03  2.390486e+03 0.0 0.0 9.0
22  1 1 2   0   0 -9.362674e+02 -1.533370e+03 -1.632161e+03  2.427297e+03 0.0 0.0 9.0
 1  1 1 2 103   0  9.362674e+02  1.533370e+03  1.876083e+03  2.597596e+03 0.0047 0.0 9.0
#pdf 21 1 4.052935e-01 3.677670e-01 5000.0 9.802999e-03 1.566813e-02
</event>
<event>
4 7 1.0 5000.0 7.905138e-03 7.739137e-02
21 -1 0 0 103 101  0.000000e+00  0.000000e+00  1.888626e+03  1.888626e+03 0.0 0.0 9.0
 1 -1 0 0 101   0  0.000000e+00  0.000000e+00 -3.354216e+03  3.354216e+03 0.0 0.0 9.0
 1  1 1 2 103   0 -2.331446e+03 -7.703660e+02 -1.308707e+03  2.782412e+03 0.0047 0.0 9.0
22  1 1 2   0   0  2.331446e+03  7.703660e+02 -1.568827e+02  2.460430e+03 0.0 0.0 9.0
#pdf 21 1 2.905579e-01 5.160332e-01 5000.0 4.046498e-02 2.254749e-03
</event>
<event>
4 7 1.0 5000.0 7.905138e-03 7.739137e-02
 1 -1 0 0 101   0  0.000000e+00  0.000000e+00  1.611785e+03  1.611785e+03 0.0 0.0 9.0
21 -1 0 0 103 101  0.000000e+00  0.000000e+00 -3.730533e+03  3.730533e+03 0.0 0.0 9.0
22  1 1 2   0   0  1.884538e+03 -3.776477e+02 -2.718137e+03  3.329020e+03 0.0 0.0 9.0
 1  1 1 2 103   0 -1.884538e+03  3.776477e+02  5.993898e+02  2.013298e+03 0.0047 0.0 9.0
#pdf 1 21 2.479669e-01 5.739281e-01 5000.0 1.300924e-01 6.835442e-03
</event>
<event>
4 7 1.0 5000.0 7.905138e-03 7.739137e-02
 1 -1 0 0 101   0  0.000000e+00  0.000000e+00  2.596574e+03  2.596574e+03 0.0 0.0 9.0
21 -1 0 0 103 101  0.000000e+00  0.000000e+00 -2.469156e+03  2.469156e+03 0.0 0.0 9.0
 1  1 1 2 103   0 -2.025714e+03 -1.515368e+03 -4.349896e+01  2.530168e+03 0.0047 0.0 9.0
22  1 1 2   0   0  2.025714e+03  1.515368e+03  1.709169e+02  2.535561e+03 0.0 0.0 9.0
#pdf 1 21 3.994729e-01 3.798701e-01 5000.0 4.325263e-02 5.092766e-02
</event>
<event>
4 7 1.0 5000.0 7.905138e-03 7.739137e-02
 1 -1 0 0 101   0  0.000000e+00  0.000000e+00  4.912504e+03  4.912504e+03 0.0 0.0 9.0
21 -1 0 0 103 101  0.000000e+00  0.000000e+00 -1.260635e+03  1.260635e+03 0.0 0.0 9.0
 1  1 1 2 103   0  1.222227e+03  8.222501e+02  4.313655e+03  4.558241e+03 0.0047 0.0 9.0
22  1 1 2   0   0 -1.222227e+03 -8.222501e+02 -6.617864e+02  1.614898e+03 0.0 0.0 9.0
#pdf 1 21 7.557698e-01 1.939438e-01 5000.0 2.657699e-04 1.789491e-01
</event>
<event>
4 7 1.0 5000.0 7.905138e-03 7.739137e-02
21 -1 0 0 103 101  0.000000e+00  0.000000e+00  2.749303e+03  2.749303e+03 0.0 0.0 9.0
 1 -1 0 0 101   0  0.000000e+00  0.000000e+00 -1.797360e+03  1.797360e+03 0.0 0.0 9.0
 1  1 1 2 103   0  1.804114e+03  4.419764e+02  1.724846e+03  2.534811e+03 0.0047 0.0 9.0
22  1 1 2   0   0 -1.804114e+03 -4.419764e+02 -7.729038e+02  2.011853e+03 0.0 0.0 9.0
#pdf 21 1 4.229697e-01 2.765170e-01 5000.0 7.827524e-03 4.803993e-02
</event>
<event>
4 7 1.0 5000.0 7.905138e-03 7.739137e-02
21 -1 0 0 103 101  0.000000e+00  0.000000e+00  2.905259e+03  2.905259e+03 0.0 0.0 9.0
 1 -1 0 0 101   0  0.000000e+00  0.000000e+00 -2.194294e+03  2.194294e+03 0.0 0.0 9.0
22  1 1 2   0   0  2.500674e+03 -8.282501e+01  6.975894e+02  2.597472e+03 0.0 0.0 9.0
 1  1 1 2 103   0 -2.500674e+03  8.282501e+01  1.337640e+01  2.502081e+03 0.0047 0.0 9.0
#pdf 21 1 4.469630e-01 3.375836e-01 5000.0 5.736577e-03 2.272674e-02
</event>
<event>
4 7 1.0 5000.0 7.905138e-03 7.739137e-02
21 -1 0 0 103 101  0.000000e+00  0.000000e+00  3.830630e+03  3.830630e+03 0.0 0.0 9.0
 1 -1 0 0 101   0  0.000000e+00  0.000000e+00 -1.664308e+03  1.664308e+03 0.0 0.0 9.0
22  1 1 2   0   0  4.899091e+02 -1.012010e+03 -1.376873e+03  1.777626e+03 0.0 0.0 9.0
 1  1 1 2 103   0 -4.899091e+02  1.012010e+03  3.543195e+03  3.717311e+03 0.0047 0.0 9.0
#pdf 21 1 5.893276e-01 2.560474e-01 5000.0 7.601028e-04 6.190052e-02
</event>
<event>
4 7 1.0 5000.0 7.905138e-03 7.739137e-02
 1 -1 0 0 101   0  0.000000e+00  0.000000e+00  1.352150e+03  1.352150e+03 0.0 0.0 9.0
21 -1 0 0 103 101  0.000000e+00  0.000000e+00 -3.603558e+03  3.603558e+03 0.0 0.0 9.0
22  1 1 2   0   0  7.568293e+02  1.737414e+03 -2.396274e+03  3.055082e+03 0.0 0.0 9.0
 1  1 1 2 103   0 -7.568293e+02 -1.737414e+03  1.448655e+02  1.900627e+03 0.0047 0.0 9.0
#pdf 1 21 2.080231e-01 5.543936e-01 5000.0 1.651580e-01 8.777183e-03
</event>
<event>
4 7 1.0 5000.0 7.905138e-03 7.739137e-02
21 -1 0 0 103 101  0.000000e+00  0.000000e+00  2.491118e+03  2.491118e+03 0.0 0.0 9.0
 1 -1 0 0 101   0  0.000000e+00  0.000000e+00 -2.492504e+03  2.492504e+03 0.0 0.0 9.0
 1  1 1 2 103   0  1.047485e+03 -2.058971e+03 -9.347886e+02  2.492071e+03 0.0047 0.0 9.0
22  1 1 2   0   0 -1.047485e+03  2.058971e+03  9.334028e+02  2.491551e+03 0.0 0.0 9.0
#pdf 21 1 3.832490e-01 3.834622e-01 5000.0 1.293872e-02 1.290411e-02
</event>
<event>
4 7 1.0 5000.0 7.905138e-03 7.739137e-02
 1 -1 0 0 101   0  0.000000e+00  0.000000e+00  2.857700e+03  2.857700e+03 0.0 0.0 9.0
21 -1 0 0 103 101  0.000000e+00  0.000000e+00 -2.184509e+03  2.184509e+03 0.0 0.0 9.0
 1  1 1 2 103   0  8.736856e+02  2.330306e+03  1.131931e+02  2.491278e+03 0.0047 0.0 9.0
22  1 1 2   0   0 -8.736856e+02 -2.330306e+03  5.599973e+02  2.550931e+03 0.0 0.0 9.0
#pdf 1 21 4.396461e-01 3.360784e-01 5000.0 3.023974e-02 7.156014e-02
</event>
<event>
4 7 1.0 5000.0 7.905138e-03 7.739137e-02
21 -1 0 0 103 101  0.000000e+00  0.000000e+00  2.946444e+03  2.946444e+03 0.0 0.0 9.0
 1 -1 0 0 101   0  0.000000e+00  0.000000e+00 -2.025956e+03  2.025956e+03 0.0 0.0 9.0
 1  1 1 2 103   0  8.758601e+01  8.083604e+02  2.804730e+03  2.920210e+03 0.0047 0.0 9.0
22  1 1 2   0   0 -8.758601e+01 -8.083604e+02 -1.884241e+03  2.052190e+03 0.0 0.0 9.0
#pdf 21 1 4.532991e-01 3.116855e-01 5000.0 5.285426e-03 3.123768e-02
</event>
<event>
4 7 1.0 5000.0 7.905138e-03 7.739137e-02
21 -1 0 0 103 101  0.000000e+00  0.000000e+00  1.627872e+03  1.627872e+03 0.0 0.0 9.0
 1 -1 0 0 101   0  0.000000e+00  0.000000e+00 -3.882136e+03  3.882136e+03 0.0 0.0 9.0
 1  1 1 2 103   0 -2.431396e+03  2.295140e+02 -4.739283e+02  2.487764e+03 0.0047 0.0 9.0
22  1 1 2   0   0  2.431396e+03 -2.295140e+02 -1.780335e+03  3.022244e+03 0.0 0.0 9.0
#pdf 21 1 2.504419e-01 5.972516e-01 5000.0 6.637439e-02 6.704995e-04
</event>
<event>
4 7 1.0 5000.0 7.905138e-03 7.739137e-02
21 -1 0 0 103 101  0.000000e+00  0.000000e+00  3.519805e+03  3.519805e+03 0.0 0.0 9.0
 1 -1 0 0 101   0  0.000000e+00  0.000000e+00 -1.735232e+03  1.735232e+03 0.0 0.0 9.0
22  1 1 2   0   0 -1.801945e+02  5.649388e+02 -1.658477e+03  1.761298e+03 0.0 0.0 9.0
 1  1 1 2 103   0  1.801945e+02 -5.649388e+02  3.443049e+03  3.493739e+03 0.0047 0.0 9.0
#pdf 21 1 5.415085e-01 2.669588e-01 5000.0 1.565289e-03 5.403214e-02
</event>
<event>
4 7 1.0 5000.0 7.905138e-03 7.739137e-02
 1 -1 0 0 101   0  0.000000e+00  0.000000e+00  2.560026e+03  2.560026e+03 0.0 0.0 9.0
21 -1 0 0 103 101  0.000000e+00  0.000000e+00 -2.558776e+03  2.558776e+03 0.0 0.0 9.0
22  1 1 2   0   0  2.346289e+03 -8.557631e+02 -5.589552e+02  2.559265e+03 0.0 0.0 9.0
 1  1 1 2 103   0 -2.346289e+03  8.557631e+02  5.602051e+02  2.559538e+03 0.0047 0.0 9.0
#pdf 1 21 3.938502e-01 3.936579e-01 5000.0 4.536044e-02 4.543380e-02
</event>
<event>
4 7 1.0 5000.0 7.905138e-03 7.739137e-02
 1 -1 0 0 101   0  0.000000e+00  0.000000e+00  3.459941e+03  3.459941e+03 0.0 0.0 9.0
21 -1 0 0 103 101  0.000000e+00  0.000000e+00 -2.170294e+03  2.170294e+03 0.0 0.0 9.0
 1  1 1 2 103   0  1.660337e+03 -5.882513e+02 -1.511636e+03  2.321164e+03 0.0047 0.0 9.0
22  1 1 2   0   0 -1.660337e+03  5.882513e+02  2.801284e+03  3.309071e+03 0.0 0.0 9.0
#pdf 1 21 5.322986e-01 3.338914e-01 5000.0 1.146671e-02 7.272719e-02
</event>
<event>
4 7 1.0 5000.0 7.905138e-03 7.739137e-02
 1 -1 0 0 101   0  0.000000e+00  0.000000e+00  1.643418e+03  1.643418e+03 0.0 0.0 9.0
21 -1 0 0 103 101  0.000000e+00  0.000000e+00 -3.130659e+03  3.130659e+03 0.0 0.0 9.0
 1  1 1 2 103   0  7.254925e+02  7.880953e+02  1.360469e+03  1.731563e+03 0.0047 0.0 9.0
22  1 1 2   0   0 -7.254925e+02 -7.880953e+02 -2.847710e+03  3.042513e+03 0.0 0.0 9.0
#pdf 1 21 2.528335e-01 4.816398e-01 5000.0 1.262062e-01 2.001577e-02
</event>
<event>
4 7 1.0 5000.0 7.905138e-03 7.739137e-02
21 -1 0 0 103 101  0.000000e+00  0.000000e+00  2.679578e+03  2.679578e+03 0.0 0.0 9.0
 1 -1 0 0 101   0  0.000000e+00  0.000000e+00 -2.136911e+03  2.136911e+03 0.0 0.0 9.0
22  1 1 2   0   0 -5.701439e+02  1.788502e+03 -1.222163e+03  2.239974e+03 0.0 0.0 9.0
 1  1 1 2 103   0  5.701439e+02 -1.788502e+03  1.764831e+03  2.576515e+03 0.0047 0.0 9.0
#pdf 21 1 4.122428e-01 3.287555e-01 5000.0 8.973925e-03 2.532915e-02
</event>
<event>
4 7 1.0 5000.0 7.905138e-03 7.739137e-02
21 -1 0 0 103 101  0.000000e+00  0.000000e+00  3.288611e+03  3.288611e+03 0.0 0.0 9.0
 1 -1 0 0 101   0  0.000000e+00  0.000000e+00 -1.808913e+03  1.808913e+03 0.0 0.0 9.0
 1  1 1 2 103   0  1.335438e+03 -1.257375e+03 -9.400991e+02  2.061110e+03 0.0047 0.0 9.0
22  1 1 2   0   0 -1.335438e+03  1.257375e+03  2.419797e+03  3.036413e+03 0.0 0.0 9.0
#pdf 21 1 5.059401e-01 2.782942e-01 5000.0 2.595703e-03 4.700154e-02
</event>
<event>
4 7 1.0 5000.0 7.905138e-03 7.739137e-02
 1 -1 0 0 101   0  0.000000e+00  0.000000e+00  2.745097e+03  2.745097e+03 0.0 0.0 9.0
21 -1 0 0 103 101  0.000000e+00  0.000000e+00 -1.936722e+03  1.936722e+03 0.0 0.0 9.0
 1  1 1 2 103   0 -1.611801e+03  9.021869e+02 -9.969448e+02  2.098986e+03 0.0047 0.0 9.0
22  1 1 2   0   0  1.611801e+03 -9.021869e+02  1.805320e+03  2.582833e+03 0.0 0.0 9.0
#pdf 1 21 4.223226e-01 2.979572e-01 5000.0 3.542030e-02 9.391541e-02
</event>
<event>
4 7 1.0 5000.0 7.905138e-03 7.739137e-02
 1 -1 0 0 101   0  0.000000e+00  0.000000e+00  2.659630e+03  2.659630e+03 0.0 0.0 9.0
21 -1 0 0 103 101  0.000000e+00  0.000000e+00 -2.372547e+03  2.372547e+03 0.0 0.0 9.0
22  1 1 2   0   0  5.827126e+02  1.530547e+03 -1.764289e+03  2.407248e+03 0.0 0.0 9.0
 1  1 1 2 103   0 -5.827126e+02 -1.530547e+03  2.051371e+03  2.624929e+03 0.0047 0.0 9.0
#pdf 1 21 4.091738e-01 3.650073e-01 5000.0 3.978550e-02 5.735912e-02
</event>
<event>
4 7 1.0 5000.0 7.905138e-03 7.739137e-02
 1 -1 0 0 101   0  0.000000e+00  0.000000e+00  3.021934e+03  3.021934e+03 0.0 0.0 9.0
21 -1 0 0 103 101  0.000000e+00  0.000000e+00 -2.076678e+03  2.076678e+03 0.0 0.0 9.0
 1  1 1 2 103   0  2.016432e+03  1.463200e+03  7.392278e+02  2.598732e+03 0.0047 0.0 9.0
22  1 1 2   0   0 -2.016432e+03 -1.463200e+03  2.060290e+02  2.499880e+03 0.0 0.0 9.0
#pdf 1 21 4.649130e-01 3.194889e-01 5000.0 2.370642e-02 8.076048e-02
</event>
<event>
4 7 1.0 5000.0 7.905138e-03 7.739137e-02
 1 -1 0 0 101   0  0.000000e+00  0.000000e+00  3.601126e+03  3.601126e+03 0.0 0.0 9.0
21 -1 0 0 103 101  0.000000e+00  0.000000e+00 -1.569827e+03  1.569827e+03 0.0 0.0 9.0
 1  1 1 2 103   0  2.352639e+03 -2.974312e+02  8.280407e+02  2.511778e+03 0.0047 0.0 9.0
22  1 1 2   0   0 -2.352639e+03  2.974312e+02  1.203259e+03  2.659175e+03 0.0 0.0 9.0
#pdf 1 21 5.540194e-01 2.415118e-01 5000.0 8.817187e-03 1.353711e-01
</event>
<event>
4 7 1.0 5000.0 7.905138e-03 7.739137e-02
 1 -1 0 0 101   0  0.000000e+00  0.000000e+00  1.799374e+03  1.799374e+03 0.0 0.0 9.0
21 -1 0 0 103 101  0.000000e+00  0.000000e+00 -3.379964e+03  3.379964e+03 0.0 0.0 9.0
22  1 1 2   0   0  1.831723e+03  5.574070e+02  8.418838e+02  2.091574e+03 0.0 0.0 9.0
 1  1 1 2 103   0 -1.831723e+03 -5.574070e+02 -2.422474e+03  3.087765e+03 0.0047 0.0 9.0
#pdf 1 21 2.768268e-01 5.199945e-01 5000.0 1.082080e-01 1.321346e-02
</event>
<event>
4 7 1.0 5000.0 7.905138e-03 7.739137e-02
 1 -1 0 0 101   0  0.000000e+00  0.000000e+00  1.666441e+03  1.666441e+03 0.0 0.0 9.0
21 -1 0 0 103 101  0.000000e+00  0.000000e+00 -3.608276e+03  3.608276e+03 0.0 0.0 9.0
 1  1 1 2 103   0 -2.928244e+02 -8.754220e+02  1.472432e+03  1.737863e+03 0.0047 0.0 9.0
22  1 1 2   0   0  2.928244e+02  8.754220e+02 -3.414268e+03  3.536854e+03 0.0 0.0 9.0
#pdf 1 21 2.563755e-01 5.551194e-01 5000.0 1.234267e-01 8.699795e-03
</event>
<event>
4 7 1.0 5000.0 7.905138e-03 7.739137e-02
 1 -1 0 0 101   0  0.000000e+00  0.000000e+00  2.505281e+03  2.505281e+03 0.0 0.0 9.0
21 -1 0 0 103 101  0.000000e+00  0.000000e+00 -2.092961e+03  2.092961e+03 0.0 0.0 9.0
22  1 1 2   0   0 -2.103423e+03  3.499720e+02 -6.318327e+02  2.223979e+03 0.0 0.0 9.0
 1  1 1 2 103   0  2.103423e+03 -3.499720e+02  1.044153e+03  2.374263e+03 0.0047 0.0 9.0
#pdf 1 21 3.854279e-01 3.219940e-01 5000.0 4.865689e-02 7.932087e-02
</event>
<event>
4 7 1.0 5000.0 7.905138e-03 7.739137e-02
21 -1 0 0 103 101  0.000000e+00  0.000000e+00  2.326210e+03  2.326210e+03 0.0 0.0 9.0
 1 -1 0 0 101   0  0.000000e+00  0.000000e+00 -2.704354e+03  2.704354e+03 0.0 0.0 9.0
22  1 1 2   0   0  1.251522e+03 -2.165488e+03 -7.877539e-01  2.501129e+03 0.0 0.0 9.0
 1  1 1 2 103   0 -1.251522e+03  2.165488e+03 -3.773564e+02  2.529435e+03 0.0047 0.0 9.0
#pdf 21 1 3.578785e-01 4.160545e-01 5000.0 1.770300e-02 8.549251e-03
</event>
<event>
4 7 1.0 5000.0 7.905138e-03 7.739137e-02
 1 -1 0 0 101   0  0.000000e+00  0.000000e+00  1.913386e+03  1.913386e+03 0.0 0.0 9.0
21 -1 0 0 103 101  0.000000e+00  0.000000e+00 -3.258066e+03  3.258066e+03 0.0 0.0 9.0
 1  1 1 2 103   0 -5.350364e+01  1.751755e+03  1.169330e+03  2.106856e+03 0.0047 0.0 9.0
22  1 1 2   0   0  5.350364e+01 -1.751755e+03 -2.514009e+03  3.064596e+03 0.0 0.0 9.0
#pdf 1 21 2.943671e-01 5.012409e-01 5000.0 9.625078e-02 1.626902e-02
</event>
<event>
4 7 1.0 5000.0 7.905138e-03 7.739137e-02
21 -1 0 0 103 101  0.000000e+00  0.000000e+00  2.046560e+03  2.046560e+03 0.0 0.0 9.0
 1 -1 0 0 101   0  0.000000e+00  0.000000e+00 -3.004781e+03  3.004781e+03 0.0 0.0 9.0
22  1 1 2   0   0 -2.480999e+02 -2.236750e+03  5.817165e+02  2.324435e+03 0.0 0.0 9.0
 1  1 1 2 103   0  2.480999e+02  2.236750e+03 -1.539938e+03  2.726905e+03 0.0047 0.0 9.0
#pdf 21 1 3.148553e-01 4.622740e-01 5000.0 3.003511e-02 4.691522e-03
</event>
<event>
4 7 1.0 5000.0 7.905138e-03 7.739137e-02
 1 -1 0 0 101   0  0.000000e+00  0.000000e+00  1.844963e+03  1.844963e+03 0.0 0.0 9.0
21 -1 0 0 103 101  0.000000e+00  0.000000e+00 -3.462582e+03  3.462582e+03 0.0 0.0 9.0
 1  1 1 2 103   0 -1.801181e+03  3.916448e+02 -2.624560e+03  3.207172e+03 0.0047 0.0 9.0
22  1 1 2   0   0  1.801181e+03 -3.916448e+02  1.006941e+03  2.100373e+03 0.0 0.0 9.0
#pdf 1 21 2.838405e-01 5.327050e-01 5000.0 1.033078e-01 1.141195e-02
</event>
<event>
4 7 1.0 5000.0 7.905138e-03 7.739137e-02
21 -1 0 0 103 101  0.000000e+00  0.000000e+00  2.241911e+03  2.241911e+03 0.0 0.0 9.0
 1 -1 0 0 101   0  0.000000e+00  0.000000e+00 -3.157898e+03  3.157898e+03 0.0 0.0 9.0
 1  1 1 2 103   0  2.282991e+03 -1.972279e+02 -1.830205e+03  2.932677e+03 0.0047 0.0 9.0
22  1 1 2   0   0 -2.282991e+03  1.972279e+02  9.142184e+02  2.467132e+03 0.0 0.0 9.0
#pdf 21 1 3.449095e-01 4.858304e-01 5000.0 2.077731e-02 3.420697e-03
</event>
<event>
4 7 1.0 5000.0 7.905138e-03 7.739137e-02
 1 -1 0 0 101   0  0.000000e+00  0.000000e+00  2.890256e+03  2.890256e+03 0.0 0.0 9.0
21 -1 0 0 103 101  0.000000e+00  0.000000e+00 -2.125808e+03  2.125808e+03 0.0 0.0 9.0
 1  1 1 2 103   0  1.810318e+03  2.802451e+00  2.095419e+03  2.769123e+03 0.0047 0.0 9.0
22  1 1 2   0   0 -1.810318e+03 -2.802451e+00 -1.330971e+03  2.246941e+03 0.0 0.0 9.0
#pdf 1 21 4.446548e-01 3.270474e-01 5000.0 2.884012e-02 7.647042e-02
</event>
<event>
4 7 1.0 5000.0 7.905138e-03 7.739137e-02
 1 -1 0 0 101   0  0.000000e+00  0.000000e+00  3.303607e+03  3.303607e+03 0.0 0.0 9.0
21 -1 0 0 103 101  0.000000e+00  0.000000e+00 -1.366642e+03  1.366642e+03 0.0 0.0 9.0
 1  1 1 2 103   0  7.261753e+02 -1.812020e+03  1.890641e+03  2.717585e+03 0.0047 0.0 9.0
22  1 1 2   0   0 -7.261753e+02  1.812020e+03  4.632488e+01  1.952663e+03 0.0 0.0 9.0
#pdf 1 21 5.082472e-01 2.102525e-01 5000.0 1.507012e-02 1.630434e-01
</event>
<event>
4 7 1.0 5000.0 7.905138e-03 7.739137e-02
21 -1 0 0 103 101  0.000000e+00  0.000000e+00  1.950793e+03  1.950793e+03 0.0 0.0 9.0
 1 -1 0 0 101   0  0.000000e+00  0.000000e+00 -3.211087e+03  3.211087e+03 0.0 0.0 9.0
22  1 1 2   0   0  8.672203e+02  1.970105e+03 -1.947021e+03  2.902460e+03 0.0 0.0 9.0
 1  1 1 2 103   0 -8.672203e+02 -1.970105e+03  6.867274e+02  2.259420e+03 0.0047 0.0 9.0
#pdf 21 1 3.001221e-01 4.940134e-01 5000.0 3.595610e-02 3.060416e-03
</event>
<event>
4 7 1.0 5000.0 7.905138e-03 7.739137e-02
21 -1 0 0 103 101  0.000000e+00  0.000000e+00  2.595233e+03  2.595233e+03 0.0 0.0 9.0
 1 -1 0 0 101   0  0.000000e+00  0.000000e+00 -2.451332e+03  2.451332e+03 0.0 0.0 9.0
22  1 1 2   0   0  1.045462e+03 -5.781303e+02 -2.150339e+03  2.459915e+03 0.0 0.0 9.0
 1  1 1 2 103   0 -1.045462e+03  5.781303e+02  2.294240e+03  2.586650e+03 0.0047 0.0 9.0
#pdf 21 1 3.992666e-01 3.771280e-01 5000.0 1.057688e-02 1.396448e-02
</event>
<event>
4 7 1.0 5000.0 7.905138e-03 7.739137e-02
 1 -1 0 0 101   0  0.000000e+00  0.000000e+00  1.543357e+03  1.543357e+03 0.0 0.0 9.0
21 -1 0 0 103 101  0.000000e+00  0.000000e+00 -3.913269e+03  3.913269e+03 0.0 0.0 9.0
 1  1 1 2 103   0  5.926768e+02  1.935171e+03  3.626991e+02  2.056138e+03 0.0047 0.0 9.0
22  1 1 2   0   0 -5.926768e+02 -1.935171e+03 -2.732611e+03  3.400488e+03 0.0 0.0 9.0
#pdf 1 21 2.374395e-01 6.020414e-01 5000.0 1.387786e-01 4.654806e-03
</event>
<event>
4 7 1.0 5000.0 7.905138e-03 7.739137e-02
21 -1 0 0 103 101  0.000000e+00  0.000000e+00  2.314571e+03  2.314571e+03 0.0 0.0 9.0
 1 -1 0 0 101   0  0.000000e+00  0.000000e+00 -2.681152e+03  2.681152e+03 0.0 0.0 9.0
 1  1 1 2 103   0 -5.242069e+01 -1.162361e+03  2.025363e+03  2.335792e+03 0.0047 0.0 9.0
22  1 1 2   0   0  5.242069e+01  1.162361e+03 -2.391945e+03  2.659930e+03 0.0 0.0 9.0
#pdf 21 1 3.560878e-01 4.124850e-01 5000.0 1.809825e-02 8.946325e-03
</event>
<event>
4 7 1.0 5000.0 7.905138e-03 7.739137e-02
21 -1 0 0 103 101  0.000000e+00  0.000000e+00  2.029467e+03  2.029467e+03 0.0 0.0 9.0
 1 -1 0 0 101   0  0.000000e+00  0.000000e+00 -3.011379e+03  3.011379e+03 0.0 0.0 9.0
 1  1 1 2 103   0  3.256642e+02 -2.441179e+03 -2.720877e+02  2.477790e+03 0.0047 0.0 9.0
22  1 1 2   0   0 -3.256642e+02  2.441179e+03 -7.098241e+02  2.563057e+03 0.0 0.0 9.0
#pdf 21 1 3.122258e-01 4.632891e-01 5000.0 3.102937e-02 4.628957e-03
</event>
<event>
4 7 1.0 5000.0 7.905138e-03 7.739137e-02
21 -1 0 0 103 101  0.000000e+00  0.000000e+00  1.345624e+03  1.345624e+03 0.0 0.0 9.0
 1 -1 0 0 101   0  0.000000e+00  0.000000e+00 -4.414686e+03  4.414686e+03 0.0 0.0 9.0
22  1 1 2   0   0  1.501410e+03  1.370189e+03  5.477145e+01  2.033384e+03 0.0 0.0 9.0
 1  1 1 2 103   0 -1.501410e+03 -1.370189e+03 -3.123834e+03  3.726927e+03 0.0047 0.0 9.0
#pdf 21 1 2.070191e-01 6.791825e-01 5000.0 1.147900e-01 1.622110e-04
</event>
<event>
4 7 1.0 5000.0 7.905138e-03 7.739137e-02
 1 -1 0 0 101   0  0.000000e+00  0.000000e+00  2.803080e+03  2.803080e+03 0.0 0.0 9.0
21 -1 0 0 103 101  0.000000e+00  0.000000e+00 -2.197574e+03  2.197574e+03 0.0 0.0 9.0
22  1 1 2   0   0  4.897060e+02  1.490231e+03 -1.634880e+03  2.265708e+03 0.0 0.0 9.0
 1  1 1 2 103   0 -4.897060e+02 -1.490231e+03  2.240386e+03  2.734946e+03 0.0047 0.0 9.0
#pdf 1 21 4.312430e-01 3.380883e-01 5000.0 3.267290e-02 7.050001e-02
</event>
<event>
4 7 1.0 5000.0 7.905138e-03 7.739137e-02
21 -1 0 0 103 101  0.000000e+00  0.000000e+00  3.476125e+03  3.476125e+03 0.0 0.0 9.0
 1 -1 0 0 101   0  0.000000e+00  0.000000e+00 -1.909404e+03  1.909404e+03 0.0 0.0 9.0
22  1 1 2   0   0  1.526574e+02  1.065247e+03  3.229961e+03  3.404512e+03 0.0 0.0 9.0
 1  1 1 2 103   0 -1.526574e+02 -1.065247e+03 -1.663240e+03  1.981016e+03 0.0047 0.0 9.0
#pdf 21 1 5.347884e-01 2.937544e-01 5000.0 1.726355e-03 3.892261e-02
</event>
<event>
4 7 1.0 5000.0 7.905138e-03 7.739137e-02
21 -1 0 0 103 101  0.000000e+00  0.000000e+00  3.440254e+03  3.440254e+03 0.0 0.0 9.0
 1 -1 0 0 101   0  0.000000e+00  0.000000e+00 -1.806960e+03  1.806960e+03 0.0 0.0 9.0
 1  1 1 2 103   0  2.117221e+03 -4.789653e+02 -4.739983e+02  2.221870e+03 0.0047 0.0 9.0
22  1 1 2   0   0 -2.117221e+03  4.789653e+02  2.107292e+03  3.025345e+03 0.0 0.0 9.0
#pdf 21 1 5.292698e-01 2.779939e-01 5000.0 1.869469e-03 4.717550e-02
</event>
<event>
4 7 1.0 5000.0 7.905138e-03 7.739137e-02
 1 -1 0 0 101   0  0.000000e+00  0.000000e+00  1.770345e+03  1.770345e+03 0.0 0.0 9.0
21 -1 0 0 103 101  0.000000e+00  0.000000e+00 -3.518576e+03  3.518576e+03 0.0 0.0 9.0
22  1 1 2   0   0  2.326782e+03  8.112891e+02 -4.542953e+02  2.505691e+03 0.0 0.0 9.0
 1  1 1 2 103   0 -2.326782e+03 -8.112891e+02 -1.293935e+03  2.783230e+03 0.0047 0.0 9.0
#pdf 1 21 2.723608e-01 5.413194e-01 5000.0 1.114151e-01 1.029790e-02
</event>
<event>
4 7 1.0 5000.0 7.905138e-03 7.739137e-02
21 -1 0 0 103 101  0.000000e+00  0.000000e+00  2.434985e+03  2.434985e+03 0.0 0.0 9.0
 1 -1 0 0 101   0  0.000000e+00  0.000000e+00 -2.288192e+03  2.288192e+03 0.0 0.0 9.0
22  1 1 2   0   0  1.343200e+03 -1.227145e+03  1.578000e+03  2.408351e+03 0.0 0.0 9.0
 1  1 1 2 103   0 -1.343200e+03  1.227145e+03 -1.431207e+03  2.314827e+03 0.0047 0.0 9.0
#pdf 21 1 3.746131e-01 3.520296e-01 5000.0 1.440210e-02 1.903615e-02
</event>
<event>
4 7 1.0 5000.0 7.905138e-03 7.739137e-02
21 -1 0 0 103 101  0.000000e+00  0.000000e+00  1.786292e+03  1.786292e+03 0.0 0.0 9.0
 1 -1 0 0 101   0  0.000000e+00  0.000000e+00 -3.324068e+03  3.324068e+03 0.0 0.0 9.0
 1  1 1 2 103   0 -1.148055e+03 -1.335052e+03  9.974252e+02  2.023673e+03 0.0047 0.0 9.0
22  1 1 2   0   0  1.148055e+03  1.335052e+03 -2.535201e+03  3.086687e+03 0.0 0.0 9.0
#pdf 21 1 2.748142e-01 5.113951e-01 5000.0 4.905559e-02 2.406221e-03
</event>
<event>
4 7 1.0 5000.0 7.905138e-03 7.739137e-02
21 -1 0 0 103 101  0.000000e+00  0.000000e+00  2.269797e+03  2.269797e+03 0.0 0.0 9.0
 1 -1 0 0 101   0  0.000000e+00  0.000000e+00 -2.663440e+03  2.663440e+03 0.0 0.0 9.0
22  1 1 2   0   0 -7.765778e+02  2.017501e+01 -2.537091e+03  2.653358e+03 0.0 0.0 9.0
 1  1 1 2 103   0  7.765778e+02 -2.017501e+01  2.143447e+03  2.279879e+03 0.0047 0.0 9.0
#pdf 21 1 3.491995e-01 4.097600e-01 5000.0 1.971309e-02 9.262057e-03
</event>
<event>
4 7 1.0 5000.0 7.905138e-03 7.739137e-02
21 -1 0 0 103 101  0.000000e+00  0.000000e+00  2.461605e+03  2.461605e+03 0.0 0.0 9.0
 1 -1 0 0 101   0  0.000000e+00  0.000000e+00 -1.811312e+03  1.811312e+03 0.0 0.0 9.0
22  1 1 2   0   0  1.640552e+03  3.313377e+02 -9.774825e+02  1.938212e+03 0.0 0.0 9.0
 1  1 1 2 103   0 -1.640552e+03 -3.313377e+02  1.627775e+03  2.334705e+03 0.0047 0.0 9.0
#pdf 21 1 3.787084e-01 2.786634e-01 5000.0 1.369403e-02 4.678851e-02
</event>
<event>
4 7 1.0 5000.0 7.905138e-03 7.739137e-02
 1 -1 0 0 101   0  0.000000e+00  0.000000e+00  1.993025e+03  1.993025e+03 0.0 0.0 9.0
21 -1 0 0 103 101  0.000000e+00  0.000000e+00 -3.119268e+03  3.119268e+03 0.0 0.0 9.0
22  1 1 2   0   0  1.341761e+03 -3.769803e+02  1.556400e+03  2.089214e+03 0.0 0.0 9.0
 1  1 1 2 103   0 -1.341761e+03  3.769803e+02 -2.682643e+03  3.023079e+03 0.0047 0.0 9.0
#pdf 1 21 3.066193e-01 4.798874e-01 5000.0 8.846094e-02 2.038060e-02
</event>
<event>
4 7 1.0 5000.0 7.905138e-03 7.739137e-02
21 -1 0 0 103 101  0.000000e+00  0.000000e+00  2.812000e+03  2.812000e+03 0.0 0.0 9.0
 1 -1 0 0 101   0  0.000000e+00  0.000000e+00 -2.556198e+03  2.556198e+03 0.0 0.0 9.0
22  1 1 2   0   0  9.164925e+02  2.283968e+03  1.192858e+03  2.734845e+03 0.0 0.0 9.0
 1  1 1 2 103   0 -9.164925e+02 -2.283968e+03 -9.370564e+02  2.633352e+03 0.0047 0.0 9.0
#pdf 21 1 4.326153e-01 3.932612e-01 5000.0 6.915999e-03 1.140586e-02
</event>
<event>
4 7 1.0 5000.0 7.905138e-03 7.739137e-02
21 -1 0 0 103 101  0.000000e+00  0.000000e+00  3.132386e+03  3.132386e+03 0.0 0.0 9.0
 1 -1 0 0 101   0  0.000000e+00  0.000000e+00 -2.009148e+03  2.009148e+03 0.0 0.0 9.0
 1  1 1 2 103   0 -2.466048e+03 -2.056256e+02  9.838296e+02  2.663005e+03 0.0047 0.0 9.0
22  1 1 2   0   0  2.466048e+03  2.056256e+02  1.394076e+02  2.478529e+03 0.0 0.0 9.0
#pdf 21 1 4.819055e-01 3.090998e-01 5000.0 3.607841e-03 3.225211e-02
</event>
<event>
4 7 1.0 5000.0 7.905138e-03 7.739137e-02
21 -1 0 0 103 101  0.000000e+00  0.000000e+00  3.375014e+03  3.375014e+03 0.0 0.0 9.0
 1 -1 0 0 101   0  0.000000e+00  0.000000e+00 -1.766926e+03  1.766926e+03 0.0 0.0 9.0
 1  1 1 2 103   0 -2.022354e+03  1.360170e+03  6.429158e+02  2.520579e+03 0.0047 0.0 9.0
22  1 1 2   0   0  2.022354e+03 -1.360170e+03  9.651723e+02  2.621361e+03 0.0 0.0 9.0
#pdf 21 1 5.192329e-01 2.718348e-01 5000.0 2.154897e-03 5.088451e-02
</event>
<event>
4 7 1.0 5000.0 7.905138e-03 7.739137e-02
21 -1 0 0 103 101  0.000000e+00  0.000000e+00  2.135684e+03  2.135684e+03 0.0 0.0 9.0
 1 -1 0 0 101   0  0.000000e+00  0.000000e+00 -2.899030e+03  2.899030e+03 0.0 0.0 9.0
22  1 1 2   0   0  1.141695e+03  1.983632e+03 -1.369386e+03  2.667111e+03 0.0 0.0 9.0
 1  1 1 2 103   0 -1.141695e+03 -1.983632e+03  6.060402e+02  2.367604e+03 0.0047 0.0 9.0
#pdf 21 1 3.285668e-01 4.460046e-01 5000.0 2.538771e-02 5.809102e-03
</event>
<event>
4 7 1.0 5000.0 7.905138e-03 7.739137e-02
21 -1 0 0 103 101  0.000000e+00  0.000000e+00  1.997488e+03  1.997488e+03 0.0 0.0 9.0
 1 -1 0 0 101   0  0.000000e+00  0.000000e+00 -3.180277e+03  3.180277e+03 0.0 0.0 9.0
 1  1 1 2 103   0 -5.983469e+02 -2.325551e+03  1.951434e+02  2.409209e+03 0.0047 0.0 9.0
22  1 1 2   0   0  5.983469e+02  2.325551e+03 -1.377932e+03  2.768556e+03 0.0 0.0 9.0
#pdf 21 1 3.073059e-01 4.892733e-01 5000.0 3.297136e-02 3.264519e-03
</event>
<event>
4 7 1.0 5000.0 7.905138e-03 7.739137e-02
21 -1 0 0 103 101  0.000000e+00  0.000000e+00  1.788545e+03  1.788545e+03 0.0 0.0 9.0
 1 -1 0 0 101   0  0.000000e+00  0.000000e+00 -3.476486e+03  3.476486e+03 0.0 0.0 9.0
 1  1 1 2 103   0 -2.034372e+02  1.586286e+03  1.175795e+03  1.984990e+03 0.0047 0.0 9.0
22  1 1 2   0   0  2.034372e+02 -1.586286e+03 -2.863736e+03  3.280042e+03 0.0 0.0 9.0
#pdf 21 1 2.751608e-01 5.348440e-01 5000.0 4.884715e-02 1.724948e-03
</event>
<event>
4 7 1.0 5000.0 7.905138e-03 7.739137e-02
 1 -1 0 0 101   0  0.000000e+00  0.000000e+00  2.832662e+03  2.832662e+03 0.0 0.0 9.0
21 -1 0 0 103 101  0.000000e+00  0.000000e+00 -2.215148e+03  2.215148e+03 0.0 0.0 9.0
 1  1 1 2 103   0  5.921622e+02 -2.421824e+03  5.532423e+02  2.553814e+03 0.0047 0.0 9.0
22  1 1 2   0   0 -5.921622e+02  2.421824e+03  6.427162e+01  2.493997e+03 0.0 0.0 9.0
#pdf 1 21 4.357942e-01 3.407921e-01 5000.0 3.133949e-02 6.909196e-02
</event>
<event>
4 7 1.0 5000.0 7.905138e-03 7.739137e-02
 1 -1 0 0 101   0  0.000000e+00  0.000000e+00  1.529043e+03  1.529043e+03 0.0 0.0 9.0
21 -1 0 0 103 101  0.000000e+00  0.000000e+00 -2.935121e+03  2.935121e+03 0.0 0.0 9.0
 1  1 1 2 103   0 -6.868805e+02 -3.275689e+02 -2.786139e+03  2.888196e+03 0.0047 0.0 9.0
22  1 1 2   0   0  6.868805e+02  3.275689e+02  1.380061e+03  1.575968e+03 0.0 0.0 9.0
#pdf 1 21 2.352375e-01 4.515571e-01 5000.0 1.406456e-01 2.700958e-02
</event>
<event>
4 7 1.0 5000.0 7.905138e-03 7.739137e-02
 1 -1 0 0 101   0  0.000000e+00  0.000000e+00  2.448776e+03  2.448776e+03 0.0 0.0 9.0
21 -1 0 0 103 101  0.000000e+00  0.000000e+00 -2.610315e+03  2.610315e+03 0.0 0.0 9.0
 1  1 1 2 103   0  1.163985e+03 -2.123422e+03 -8.079799e+02  2.552766e+03 0.0047 0.0 9.0
22  1 1 2   0   0 -1.163985e+03  2.123422e+03  6.464405e+02  2.506325e+03 0.0 0.0 9.0
#pdf 1 21 3.767348e-01 4.015870e-01 5000.0 5.223811e-02 4.247871e-02
</event>
<event>
4 7 1.0 5000.0 7.905138e-03 7.739137e-02
 1 -1 0 0 101   0  0.000000e+00  0.000000e+00  3.076209e+03  3.076209e+03 0.0 0.0 9.0
21 -1 0 0 103 101  0.000000e+00  0.000000e+00 -1.777642e+03  1.777642e+03 0.0 0.0 9.0
22  1 1 2   0   0  1.926686e+02  1.470090e+03 -1.227472e+03  1.924831e+03 0.0 0.0 9.0
 1  1 1 2 103   0 -1.926686e+02 -1.470090e+03  2.526039e+03  2.929020e+03 0.0047 0.0 9.0
#pdf 1 21 4.732629e-01 2.734834e-01 5000.0 2.180656e-02 1.106027e-01
</event>
<event>
4 7 1.0 5000.0 7.905138e-03 7.739137e-02
21 -1 0 0 103 101  0.000000e+00  0.000000e+00  3.758861e+03  3.758861e+03 0.0 0.0 9.0
 1 -1 0 0 101   0  0.000000e+00  0.000000e+00 -1.637595e+03  1.637595e+03 0.0 0.0 9.0
22  1 1 2   0   0  2.320125e+03 -1.158762e+02  1.131040e+02  2.325768e+03 0.0 0.0 9.0
 1  1 1 2 103   0 -2.320125e+03  1.158762e+02  2.008163e+03  3.070688e+03 0.0047 0.0 9.0
#pdf 21 1 5.782864e-01 2.519377e-01 5000.0 9.022758e-04 6.515780e-02
</event>
<event>
4 7 1.0 5000.0 7.905138e-03 7.739137e-02
21 -1 0 0 103 101  0.000000e+00  0.000000e+00  2.061966e+03  2.061966e+03 0.0 0.0 9.0
 1 -1 0 0 101   0  0.000000e+00  0.000000e+00 -2.756037e+03  2.756037e+03 0.0 0.0 9.0
 1  1 1 2 103   0  1.688680e+03  1.532025e+03 -1.050153e+03  2.510291e+03 0.0047 0.0 9.0
22  1 1 2   0   0 -1.688680e+03 -1.532025e+03  3.560819e+02  2.307712e+03 0.0 0.0 9.0
#pdf 21 1 3.172255e-01 4.240057e-01 5000.0 2.916915e-02 7.724252e-03
</event>
<event>
4 7 1.0 5000.0 7.905138e-03 7.739137e-02
21 -1 0 0 103 101  0.000000e+00  0.000000e+00  3.549841e+03  3.549841e+03 0.0 0.0 9.0
 1 -1 0 0 101   0  0.000000e+00  0.000000e+00 -1.742358e+03  1.742358e+03 0.0 0.0 9.0
 1  1 1 2 103   0 -8.237291e+02 -1.785684e+03 -7.161288e+02  2.092853e+03 0.0047 0.0 9.0
22  1 1 2   0   0  8.237291e+02  1.785684e+03  2.523612e+03  3.199346e+03 0.0 0.0 9.0
#pdf 21 1 5.461294e-01 2.680551e-01 5000.0 1.463683e-03 5.330677e-02
</event>
<event>
4 7 1.0 5000.0 7.905138e-03 7.739137e-02
21 -1 0 0 103 101  0.000000e+00  0.000000e+00  2.664016e+03  2.664016e+03 0.0 0.0 9.0
 1 -1 0 0 101   0  0.000000e+00  0.000000e+00 -2.203642e+03  2.203642e+03 0.0 0.0 9.0
22  1 1 2   0   0  1.718515e+03 -1.355392e+03 -8.137977e+02  2.335091e+03 0.0 0.0 9.0
 1  1 1 2 103   0 -1.718515e+03  1.355392e+03  1.274172e+03  2.532567e+03 0.0047 0.0 9.0
#pdf 21 1 4.098486e-01 3.390219e-01 5000.0 9.251608e-03 2.232895e-02
</event>
<event>
4 7 1.0 5000.0 7.905138e-03 7.739137e-02
 1 -1 0 0 101   0  0.000000e+00  0.000000e+00  2.555571e+03  2.555571e+03 0.0 0.0 9.0
21 -1 0 0 103 101  0.000000e+00  0.000000e+00 -2.191264e+03  2.191264e+03 0.0 0.0 9.0
22  1 1 2   0   0  1.940782e+02  1.229872e+03 -1.836180e+03  2.218515e+03 0.0 0.0 9.0
 1  1 1 2 103   0 -1.940782e+02 -1.229872e+03  2.200488e+03  2.528319e+03 0.0047 0.0 9.0
#pdf 1 21 3.931647e-01 3.371175e-01 5000.0 4.562231e-02 7.101061e-02
</event>
<event>
4 7 1.0 5000.0 7.905138e-03 7.739137e-02
21 -1 0 0 103 101  0.000000e+00  0.000000e+00  2.337994e+03  2.337994e+03 0.0 0.0 9.0
 1 -1 0 0 101   0  0.000000e+00  0.000000e+00 -2.978259e+03  2.978259e+03 0.0 0.0 9.0
 1  1 1 2 103   0  4.933327e+02 -1.081777e+03  2.052885e+03  2.372331e+03 0.0047 0.0 9.0
22  1 1 2   0   0 -4.933327e+02  1.081777e+03 -2.693150e+03  2.943922e+03 0.0 0.0 9.0
#pdf 21 1 3.596914e-01 4.581937e-01 5000.0 1.731378e-02 4.953344e-03
</event>
<event>
4 7 1.0 5000.0 7.905138e-03 7.739137e-02
 1 -1 0 0 101   0  0.000000e+00  0.000000e+00  3.097973e+03  3.097973e+03 0.0 0.0 9.0
21 -1 0 0 103 101  0.000000e+00  0.000000e+00 -2.041861e+03  2.041861e+03 0.0 0.0 9.0
 1  1 1 2 103   0 -2.294550e+03  1.029719e+03  5.472376e+02  2.573859e+03 0.0047 0.0 9.0
22  1 1 2   0   0  2.294550e+03 -1.029719e+03  5.088739e+02  2.565976e+03 0.0 0.0 9.0
#pdf 1 21 4.766112e-01 3.141325e-01 5000.0 2.107663e-02 8.390174e-02
</event>
<event>
4 7 1.0 5000.0 7.905138e-03 7.739137e-02
21 -1 0 0 103 101  0.000000e+00  0.000000e+00  1.960093e+03  1.960093e+03 0.0 0.0 9.0
 1 -1 0 0 101   0  0.000000e+00  0.000000e+00 -3.312915e+03  3.312915e+03 0.0 0.0 9.0
22  1 1 2   0   0 -2.293747e+03  1.056365e+03 -3.233630e+02  2.545927e+03 0.0 0.0 9.0
 1  1 1 2 103   0  2.293747e+03 -1.056365e+03 -1.029459e+03  2.727080e+03 0.0047 0.0 9.0
#pdf 21 1 3.015527e-01 5.096792e-01 5000.0 3.534635e-02 2.464416e-03
</event>
<event>
4 7 1.0 5000.0 7.905138e-03 7.739137e-02
21 -1 0 0 103 101  0.000000e+00  0.000000e+00  1.810106e+03  1.810106e+03 0.0 0.0 9.0
 1 -1 0 0 101   0  0.000000e+00  0.000000e+00 -3.488558e+03  3.488558e+03 0.0 0.0 9.0
22  1 1 2   0   0 -1.904078e+03 -1.609985e+03 -5.107114e+02  2.545269e+03 0.0 0.0 9.0
 1  1 1 2 103   0  1.904078e+03  1.609985e+03 -1.167741e+03  2.753395e+03 0.0047 0.0 9.0
#pdf 21 1 2.784779e-01 5.367013e-01 5000.0 4.689547e-02 1.678468e-03
</event>
<event>
4 7 1.0 5000.0 7.905138e-03 7.739137e-02
21 -1 0 0 103 101  0.000000e+00  0.000000e+00  1.857390e+03  1.857390e+03 0.0 0.0 9.0
 1 -1 0 0 101   0  0.000000e+00  0.000000e+00 -3.418294e+03  3.418294e+03 0.0 0.0 9.0
 1  1 1 2 103   0 -1.729136e+03 -1.029849e+03 -2.367627e+03  3.107436e+03 0.0047 0.0 9.0
22  1 1 2   0   0  1.729136e+03  1.029849e+03  8.067222e+02  2.168248e+03 0.0 0.0 9.0
#pdf 21 1 2.857523e-01 5.258915e-01 5000.0 4.289016e-02 1.961359e-03
</event>
<event>
4 7 1.0 5000.0 7.905138e-03 7.739137e-02
21 -1 0 0 103 101  0.000000e+00  0.000000e+00  4.546299e+03  4.546299e+03 0.0 0.0 9.0
 1 -1 0 0 101   0  0.000000e+00  0.000000e+00 -1.291981e+03  1.291981e+03 0.0 0.0 9.0
22  1 1 2   0   0  3.678036e+02 -1.523845e+03  3.853434e+03  4.160089e+03 0.0 0.0 9.0
 1  1 1 2 103   0 -3.678036e+02  1.523845e+03 -5.991159e+02  1.678191e+03 0.0047 0.0 9.0
#pdf 21 1 6.994306e-01 1.987663e-01 5000.0 1.094483e-04 1.278514e-01
</event>
<event>
4 7 1.0 5000.0 7.905138e-03 7.739137e-02
 1 -1 0 0 101   0  0.000000e+00  0.000000e+00  3.408846e+03  3.408846e+03 0.0 0.0 9.0
21 -1 0 0 103 101  0.000000e+00  0.000000e+00 -1.808787e+03  1.808787e+03 0.0 0.0 9.0
 1  1 1 2 103   0  6.790465e+02 -1.648186e+03  2.616193e+03  3.165768e+03 0.0047 0.0 9.0
22  1 1 2   0   0 -6.790465e+02  1.648186e+03 -1.016135e+03  2.051865e+03 0.0 0.0 9.0
#pdf 1 21 5.244378e-01 2.782750e-01 5000.0 1.256108e-02 1.071824e-01
</event>
<event>
4 7 1.0 5000.0 7.905138e-03 7.739137e-02
21 -1 0 0 103 101  0.000000e+00  0.000000e+00  2.302917e+03  2.302917e+03 0.0 0.0 9.0
 1 -1 0 0 101   0  0.000000e+00  0.000000e+00 -2.809653e+03  2.809653e+03 0.0 0.0 9.0
22  1 1 2   0   0 -2.251360e+03 -7.528998e+02 -1.171628e+03  2.647299e+03 0.0 0.0 9.0
 1  1 1 2 103   0  2.251360e+03  7.528998e+02  6.648923e+02  2.465271e+03 0.0047 0.0 9.0
#pdf 21 1 3.542950e-01 4.322544e-01 5000.0 1.850653e-02 6.947936e-03
</event>
<event>
4 7 1.0 5000.0 7.905138e-03 7.739137e-02
 1 -1 0 0 101   0  0.000000e+00  0.000000e+00  2.487661e+03  2.487661e+03 0.0 0.0 9.0
21 -1 0 0 103 101  0.000000e+00  0.000000e+00 -2.524399e+03  2.524399e+03 0.0 0.0 9.0
22  1 1 2   0   0 -1.928078e+03 -8.303784e+02 -1.386921e+03  2.516061e+03 0.0 0.0 9.0
 1  1 1 2 103   0  1.928078e+03  8.303784e+02  1.350183e+03  2.495998e+03 0.0047 0.0 9.0
#pdf 1 21 3.827170e-01 3.883690e-01 5000.0 4.975564e-02 4.748521e-02
</event>
<event>
4 7 1.0 5000.0 7.905138e-03 7.739137e-02
21 -1 0 0 103 101  0.000000e+00  0.000000e+00  2.184937e+03  2.184937e+03 0.0 0.0 9.0
 1 -1 0 0 101   0  0.000000e+00  0.000000e+00 -2.759311e+03  2.759311e+03 0.0 0.0 9.0
 1  1 1 2 103   0  1.022206e+03  2.150316e+03  3.170328e+02  2.401932e+03 0.0047 0.0 9.0
22  1 1 2   0   0 -1.022206e+03 -2.150316e+03 -8.914072e+02  2.542316e+03 0.0 0.0 9.0
#pdf 21 1 3.361441e-01 4.245094e-01 5000.0 2.313309e-02 7.674459e-03
</event>
<event>
4 7 1.0 5000.0 7.905138e-03 7.739137e-02
21 -1 0 0 103 101  0.000000e+00  0.000000e+00  3.462813e+03  3.462813e+03 0.0 0.0 9.0
 1 -1 0 0 101   0  0.000000e+00  0.000000e+00 -1.956892e+03  1.956892e+03 0.0 0.0 9.0
 1  1 1 2 103   0 -1.784701e+03  1.108775e+03 -8.468569e+02  2.265327e+03 0.0047 0.0 9.0
22  1 1 2   0   0  1.784701e+03 -1.108775e+03  2.352777e+03  3.154378e+03 0.0 0.0 9.0
#pdf 21 1 5.327404e-01 3.010604e-01 5000.0 1.778586e-03 3.555342e-02
</event>
<event>
4 7 1.0 5000.0 7.905138e-03 7.739137e-02
21 -1 0 0 103 101  0.000000e+00  0.000000e+00  2.792998e+03  2.792998e+03 0.0 0.0 9.0
 1 -1 0 0 101   0  0.000000e+00  0.000000e+00 -2.233680e+03  2.233680e+03 0.0 0.0 9.0
 1  1 1 2 103   0 -2.019167e+03  4.023508e+02 -1.143299e+03  2.355006e+03 0.0047 0.0 9.0
22  1 1 2   0   0  2.019167e+03 -4.023508e+02  1.702617e+03  2.671671e+03 0.0 0.0 9.0
#pdf 21 1 4.296920e-01 3.436430e-01 5000.0 7.179287e-03 2.110147e-02
</event>
<event>
4 7 1.0 5000.0 7.905138e-03 7.739137e-02
21 -1 0 0 103 101  0.000000e+00  0.000000e+00  1.923474e+03  1.923474e+03 0.0 0.0 9.0
 1 -1 0 0 101   0  0.000000e+00  0.000000e+00 -3.344263e+03  3.344263e+03 0.0 0.0 9.0
 1  1 1 2 103   0 -3.272804e+02 -6.128380e+02  1.822728e+03  1.950646e+03 0.0047 0.0 9.0
22  1 1 2   0   0  3.272804e+02  6.128380e+02 -3.243517e+03  3.317090e+03 0.0 0.0 9.0
#pdf 21 1 2.959191e-01 5.145020e-01 5000.0 3.790134e-02 2.303862e-03
</event>
<event>
4 7 1.0 5000.0 7.905138e-03 7.739137e-02
21 -1 0 0 103 101  0.000000e+00  0.000000e+00  2.409959e+03  2.409959e+03 0.0 0.0 9.0
 1 -1 0 0 101   0  0.000000e+00  0.000000e+00 -2.358046e+03  2.358046e+03 0.0 0.0 9.0
22  1 1 2   0   0  1.706564e+03  8.224638e+02  1.473103e+03  2.399758e+03 0.0 0.0 9.0
 1  1 1 2 103   0 -1.706564e+03 -8.224638e+02 -1.421190e+03  2.368246e+03 0.0047 0.0 9.0
#pdf 21 1 3.707629e-01 3.627762e-01 5000.0 1.509253e-02 1.667173e-02
</event>
<event>
4 7 1.0 5000.0 7.905138e-03 7.739137e-02
21 -1 0 0 103 101  0.000000e+00  0.000000e+00  2.376355e+03  2.376355e+03 0.0 0.0 9.0
 1 -1 0 0 101   0  0.000000e+00  0.000000e+00 -2.631879e+03  2.631879e+03 0.0 0.0 9.0
 1  1 1 2 103   0 -7.778803e+02  8.583917e+02  2.091510e+03  2.390888e+03 0.0047 0.0 9.0
22  1 1 2   0   0  7.778803e+02 -8.583917e+02 -2.347033e+03  2.617346e+03 0.0 0.0 9.0
#pdf 21 1 3.655931e-01 4.049044e-01 5000.0 1.610156e-02 9.851372e-03
</event>
<event>
4 7 1.0 5000.0 7.905138e-03 7.739137e-02
21 -1 0 0 103 101  0.000000e+00  0.000000e+00  2.171769e+03  2.171769e+03 0.0 0.0 9.0
 1 -1 0 0 101   0  0.000000e+00  0.000000e+00 -2.919420e+03  2.919420e+03 0.0 0.0 9.0
 1  1 1 2 103   0  1.289965e+03  1.846362e+03 -1.511883e+03  2.712721e+03 0.0047 0.0 9.0
22  1 1 2   0   0 -1.289965e+03 -1.846362e+03  7.642321e+02  2.378469e+03 0.0 0.0 9.0
#pdf 21 1 3.341183e-01 4.491416e-01 5000.0 2.371734e-02 5.578344e-03
</event>
<event>
4 7 1.0 5000.0 7.905138e-03 7.739137e-02
 1 -1 0 0 101   0  0.000000e+00  0.000000e+00  2.455033e+03  2.455033e+03 0.0 0.0 9.0
21 -1 0 0 103 101  0.000000e+00  0.000000e+00 -2.479838e+03  2.479838e+03 0.0 0.0 9.0
 1  1 1 2 103   0 -3.925593e+02 -1.760535e+03 -1.696020e+03  2.475898e+03 0.0047 0.0 9.0
22  1 1 2   0   0  3.925593e+02  1.760535e+03  1.671215e+03  2.458973e+03 0.0 0.0 9.0
#pdf 1 21 3.776973e-01 3.815135e-01 5000.0 5.183371e-02 5.024894e-02
</event>
<event>
4 7 1.0 5000.0 7.905138e-03 7.739137e-02
21 -1 0 0 103 101  0.000000e+00  0.000000e+00  1.979829e+03  1.979829e+03 0.0 0.0 9.0
 1 -1 0 0 101   0  0.000000e+00  0.000000e+00 -3.483901e+03  3.483901e+03 0.0 0.0 9.0
22  1 1 2   0   0  1.924677e+03  2.101873e+02  1.093815e+03  2.223734e+03 0.0 0.0 9.0
 1  1 1 2 103   0 -1.924677e+03 -2.101873e+02 -2.597886e+03  3.239996e+03 0.0047 0.0 9.0
#pdf 21 1 3.045891e-01 5.359847e-01 5000.0 3.408144e-02 1.696257e-03
</event>
<event>
4 7 1.0 5000.0 7.905138e-03 7.739137e-02
21 -1 0 0 103 101  0.000000e+00  0.000000e+00  3.232260e+03  3.232260e+03 0.0 0.0 9.0
 1 -1 0 0 101   0  0.000000e+00  0.000000e+00 -1.913200e+03  1.913200e+03 0.0 0.0 9.0
22  1 1 2   0   0 -2.122805e+02  2.332149e+03 -2.060418e+02  2.350837e+03 0.0 0.0 9.0
 1  1 1 2 103   0  2.122805e+02 -2.332149e+03  1.525102e+03  2.794623e+03 0.0047 0.0 9.0
#pdf 21 1 4.972708e-01 2.943385e-01 5000.0 2.926705e-03 3.864547e-02
</event>
<event>
4 7 1.0 5000.0 7.905138e-03 7.739137e-02
21 -1 0 0 103 101  0.000000e+00  0.000000e+00  3.673838e+03  3.673838e+03 0.0 0.0 9.0
 1 -1 0 0 101   0  0.000000e+00  0.000000e+00 -1.679818e+03  1.679818e+03 0.0 0.0 9.0
 1  1 1 2 103   0  2.829984e+02 -5.385194e+02 -1.598314e+03  1.710175e+03 0.0047 0.0 9.0
22  1 1 2   0   0 -2.829984e+02  5.385194e+02  3.592333e+03  3.643481e+03 0.0 0.0 9.0
#pdf 21 1 5.652058e-01 2.584335e-01 5000.0 1.103080e-03 6.007586e-02
</event>
<event>
4 7 1.0 5000.0 7.905138e-03 7.739137e-02
 1 -1 0 0 101   0  0.000000e+00  0.000000e+00  3.092489e+03  3.092489e+03 0.0 0.0 9.0
21 -1 0 0 103 101  0.000000e+00  0.000000e+00 -1.867029e+03  1.867029e+03 0.0 0.0 9.0
22  1 1 2   0   0  1.689380e+03  9.189042e+02  2.099447e+03  2.847116e+03 0.0 0.0 9.0
 1  1 1 2 103   0 -1.689380e+03 -9.189042e+02 -8.739875e+02  2.112403e+03 0.0047 0.0 9.0
#pdf 1 21 4.757676e-01 2.872353e-01 5000.0 2.125879e-02 1.009953e-01
</event>
<event>
4 7 1.0 5000.0 7.905138e-03 7.739137e-02
21 -1 0 0 103 101  0.000000e+00  0.000000e+00  3.114423e+03  3.114423e+03 0.0 0.0 9.0
 1 -1 0 0 101   0  0.000000e+00  0.000000e+00 -1.815702e+03  1.815702e+03 0.0 0.0 9.0
 1  1 1 2 103   0  1.428470e+02  1.151958e+03 -1.502069e+03  1.898321e+03 0.0047 0.0 9.0
22  1 1 2   0   0 -1.428470e+02 -1.151958e+03  2.800790e+03  3.031804e+03 0.0 0.0 9.0
#pdf 21 1 4.791421e-01 2.793388e-01 5000.0 3.745617e-03 4.640117e-02
</event>
<event>
4 7 1.0 5000.0 7.905138e-03 7.739137e-02
21 -1 0 0 103 101  0.000000e+00  0.000000e+00  3.199713e+03  3.199713e+03 0.0 0.0 9.0
 1 -1 0 0 101   0  0.000000e+00  0.000000e+00 -1.969031e+03  1.969031e+03 0.0 0.0 9.0
22  1 1 2   0   0 -6.658808e+02  1.723310e+03 -1.134132e+03  2.167821e+03 0.0 0.0 9.0
 1  1 1 2 103   0  6.658808e+02 -1.723310e+03  2.364814e+03  3.000923e+03 0.0047 0.0 9.0
#pdf 21 1 4.922635e-01 3.029279e-01 5000.0 3.134383e-03 3.477072e-02
</event>
<event>
4 7 1.0 5000.0 7.905138e-03 7.739137e-02
 1 -1 0 0 101   0  0.000000e+00  0.000000e+00  1.670777e+03  1.670777e+03 0.0 0.0 9.0
21 -1 0 0 103 101  0.000000e+00  0.000000e+00 -3.551879e+03  3.551879e+03 0.0 0.0 9.0
 1  1 1 2 103   0  6.050426e+02  1.955863e+03 -2.355732e+03  3.121049e+03 0.0047 0.0 9.0
22  1 1 2   0   0 -6.050426e+02 -1.955863e+03  4.746293e+02  2.101606e+03 0.0 0.0 9.0
#pdf 1 21 2.570426e-01 5.464429e-01 5000.0 1.229080e-01 9.680721e-03
</event>
<event>
4 7 1.0 5000.0 7.905138e-03 7.739137e-02
21 -1 0 0 103 101  0.000000e+00  0.000000e+00  3.811258e+03  3.811258e+03 0.0 0.0 9.0
 1 -1 0 0 101   0  0.000000e+00  0.000000e+00 -1.639920e+03  1.639920e+03 0.0 0.0 9.0
 1  1 1 2 103   0  2.309019e+03 -5.307955e+02  1.955696e+03  3.072142e+03 0.0047 0.0 9.0
22  1 1 2   0   0 -2.309019e+03  5.307955e+02  2.156413e+02  2.379036e+03 0.0 0.0 9.0
#pdf 21 1 5.863474e-01 2.522954e-01 5000.0 7.964775e-04 6.486906e-02
</event>
<event>
4 7 1.0 5000.0 7.905138e-03 7.739137e-02
21 -1 0 0 103 101  0.000000e+00  0.000000e+00  3.048002e+03  3.048002e+03 0.0 0.0 9.0
 1 -1 0 0 101   0  0.000000e+00  0.000000e+00 -2.113394e+03  2.113394e+03 0.0 0.0 9.0
 1  1 1 2 103   0  1.036767e+03 -7.125074e+02  2.708687e+03  2.986560e+03 0.0047 0.0 9.0
22  1 1 2   0   0 -1.036767e+03  7.125074e+02 -1.774079e+03  2.174835e+03 0.0 0.0 9.0
#pdf 21 1 4.689233e-01 3.251375e-01 5000.0 4.295947e-03 2.647511e-02
</event>
<event>
4 7 1.0 5000.0 7.905138e-03 7.739137e-02
21 -1 0 0 103 101  0.000000e+00  0.000000e+00  1.444310e+03  1.444310e+03 0.0 0.0 9.0
 1 -1 0 0 101   0  0.000000e+00  0.000000e+00 -4.306483e+03  4.306483e+03 0.0 0.0 9.0
22  1 1 2   0   0 -8.528064e+02 -1.475888e+03 -3.530060e+03  3.920057e+03 0.0 0.0 9.0
 1  1 1 2 103   0  8.528064e+02  1.475888e+03  6.678872e+02  1.830736e+03 0.0047 0.0 9.0
#pdf 21 1 2.222016e-01 6.625359e-01 5000.0 9.457146e-02 2.211863e-04
</event>
<event>
4 7 1.0 5000.0 7.905138e-03 7.739137e-02
21 -1 0 0 103 101  0.000000e+00  0.000000e+00  2.800950e+03  2.800950e+03 0.0 0.0 9.0
 1 -1 0 0 101   0  0.000000e+00  0.000000e+00 -2.468724e+03  2.468724e+03 0.0 0.0 9.0
22  1 1 2   0   0  9.246137e+02 -1.748042e+03 -1.570608e+03  2.525345e+03 0.0 0.0 9.0
 1  1 1 2 103   0 -9.246137e+02  1.748042e+03  1.902834e+03  2.744328e+03 0.0047 0.0 9.0
#pdf 21 1 4.309154e-01 3.798037e-01 5000.0 7.067781e-03 1.350880e-02
</event>
<event>
4 7 1.0 5000.0 7.905138e-03 7.739137e-02
 1 -1 0 0 101   0  0.000000e+00  0.000000e+00  2.163939e+03  2.163939e+03 0.0 0.0 9.0
21 -1 0 0 103 101  0.000000e+00  0.000000e+00 -2.854987e+03  2.854987e+03 0.0 0.0 9.0
22  1 1 2   0   0 -1.918867e+03  1.486716e+03 -8.851211e+02  2.583759e+03 0.0 0.0 9.0
 1  1 1 2 103   0  1.918867e+03 -1.486716e+03  1.940728e+02  2.435167e+03 0.0047 0.0 9.0
#pdf 1 21 3.329137e-01 4.392288e-01 5000.0 7.325350e-02 3.035779e-02
</event>
<event>
4 7 1.0 5000.0 7.905138e-03 7.739137e-02
21 -1 0 0 103 101  0.000000e+00  0.000000e+00  2.165191e+03  2.165191e+03 0.0 0.0 9.0
 1 -1 0 0 101   0  0.000000e+00  0.000000e+00 -2.745370e+03  2.745370e+03 0.0 0.0 9.0
22  1 1 2   0   0 -4.303641e+02 -2.336297e+03 -8.423660e+02  2.520532e+03 0.0 0.0 9.0
 1  1 1 2 103   0  4.303641e+02  2.336297e+03  2.621862e+02  2.390029e+03 0.0047 0.0 9.0
#pdf 21 1 3.331062e-01 4.223647e-01 5000.0 2.401410e-02 7.888384e-03
</event>
<event>
4 7 1.0 5000.0 7.905138e-03 7.739137e-02
21 -1 0 0 103 101  0.000000e+00  0.000000e+00  1.806508e+03  1.806508e+03 0.0 0.0 9.0
 1 -1 0 0 101   0  0.000000e+00  0.000000e+00 -3.448902e+03  3.448902e+03 0.0 0.0 9.0
22  1 1 2   0   0 -8.035189e+02 -1.914631e+03 -2.279525e+03  3.083454e+03 0.0 0.0 9.0
 1  1 1 2 103   0  8.035189e+02  1.914631e+03  6.371316e+02  2.171956e+03 0.0047 0.0 9.0
#pdf 21 1 2.779244e-01 5.306003e-01 5000.0 4.721586e-02 1.834245e-03
</event>
<event>
4 7 1.0 5000.0 7.905138e-03 7.739137e-02
21 -1 0 0 103 101  0.000000e+00  0.000000e+00  3.693875e+03  3.693875e+03 0.0 0.0 9.0
 1 -1 0 0 101   0  0.000000e+00  0.000000e+00 -1.772921e+03  1.772921e+03 0.0 0.0 9.0
 1  1 1 2 103   0  2.121097e+03  3.075120e+02  2.454054e+03  3.258220e+03 0.0047 0.0 9.0
22  1 1 2   0   0 -2.121097e+03 -3.075120e+02 -5.330998e+02  2.208576e+03 0.0 0.0 9.0
#pdf 21 1 5.682885e-01 2.727571e-01 5000.0 1.052205e-03 5.031109e-02
</event>
<event>
4 7 1.0 5000.0 7.905138e-03 7.739137e-02
21 -1 0 0 103 101  0.000000e+00  0.000000e+00  3.133805e+03  3.133805e+03 0.0 0.0 9.0
 1 -1 0 0 101   0  0.000000e+00  0.000000e+00 -2.552751e+03  2.552751e+03 0.0 0.0 9.0
 1  1 1 2 103   0 -1.836579e+03  8.003017e+02 -1.716555e+03  2.638194e+03 0.0047 0.0 9.0
22  1 1 2   0   0  1.836579e+03 -8.003017e+02  2.297609e+03  3.048362e+03 0.0 0.0 9.0
#pdf 21 1 4.821238e-01 3.927309e-01 5000.0 3.597159e-03 1.148214e-02
</event>
<event>
4 7 1.0 5000.0 7.905138e-03 7.739137e-02
 1 -1 0 0 101   0  0.000000e+00  0.000000e+00  1.917409e+03  1.917409e+03 0.0 0.0 9.0
21 -1 0 0 103 101  0.000000e+00  0.000000e+00 -3.259165e+03  3.259165e+03 0.0 0.0 9.0
 1  1 1 2 103   0  2.426380e+03  1.657908e+01 -4.830688e+01  2.426918e+03 0.0047 0.0 9.0
22  1 1 2   0   0 -2.426380e+03 -1.657908e+01 -1.293449e+03  2.749656e+03 0.0 0.0 9.0
#pdf 1 21 2.949860e-01 5.014100e-01 5000.0 9.584581e-02 1.623922e-02
</event>
<event>
4 7 1.0 5000.0 7.905138e-03 7.739137e-02
 1 -1 0 0 101   0  0.000000e+00  0.000000e+00  2.560133e+03  2.560133e+03 0.0 0.0 9.0
21 -1 0 0 103 101  0.000000e+00  0.000000e+00 -2.439146e+03  2.439146e+03 0.0 0.0 9.0
22  1 1 2   0   0 -8.707130e+02  1.064835e+03  2.147375e+03  2.550144e+03 0.0 0.0 9.0
 1  1 1 2 103   0  8.707130e+02 -1.064835e+03 -2.026388e+03  2.449135e+03 0.0047 0.0 9.0
#pdf 1 21 3.938666e-01 3.752533e-01 5000.0 4.535419e-02 5.286394e-02
</event>
<event>
4 7 1.0 5000.0 7.905138e-03 7.739137e-02
 1 -1 0 0 101   0  0.000000e+00  0.000000e+00  2.736240e+03  2.736240e+03 0.0 0.0 9.0
21 -1 0 0 103 101  0.000000e+00  0.000000e+00 -2.265451e+03  2.265451e+03 0.0 0.0 9.0
22  1 1 2   0   0 -2.639069e+02  2.454304e+03 -9.096094e+01  2.470127e+03 0.0 0.0 9.0
 1  1 1 2 103   0  2.639069e+02 -2.454304e+03  5.617502e+02  2.531564e+03 0.0047 0.0 9.0
#pdf 1 21 4.209601e-01 3.485309e-01 5000.0 3.585534e-02 6.517176e-02
</event>
<event>
4 7 1.0 5000.0 7.905138e-03 7.739137e-02
 1 -1 0 0 101   0  0.000000e+00  0.000000e+00  1.688822e+03  1.688822e+03 0.0 0.0 9.0
21 -1 0 0 103 101  0.000000e+00  0.000000e+00 -3.094570e+03  3.094570e+03 0.0 0.0 9.0
 1  1 1 2 103   0  4.214578e+02  4.769871e+02 -2.999996e+03  3.066777e+03 0.0047 0.0 9.0
22  1 1 2   0   0 -4.214578e+02 -4.769871e+02  1.594248e+03  1.716616e+03 0.0 0.0 9.0
#pdf 1 21 2.598188e-01 4.760878e-01 5000.0 1.207661e-01 2.118952e-02
</event>
<event>
4 7 1.0 5000.0 7.905138e-03 7.739137e-02
 1 -1 0 0 101   0  0.000000e+00  0.000000e+00  1.932625e+03  1.932625e+03 0.0 0.0 9.0
21 -1 0 0 103 101  0.000000e+00  0.000000e+00 -3.354246e+03  3.354246e+03 0.0 0.0 9.0
22  1 1 2   0   0  5.806236e+02  7.984161e+02  1.725826e+03  1.988233e+03 0.0 0.0 9.0
 1  1 1 2 103   0 -5.806236e+02 -7.984161e+02 -3.147447e+03  3.298638e+03 0.0047 0.0 9.0
#pdf 1 21 2.973270e-01 5.160378e-01 5000.0 9.432297e-02 1.381814e-02
</event>
<event>
4 7 1.0 5000.0 7.905138e-03 7.739137e-02
21 -1 0 0 103 101  0.000000e+00  0.000000e+00  2.854914e+03  2.854914e+03 0.0 0.0 9.0
 1 -1 0 0 101   0  0.000000e+00  0.000000e+00 -2.285161e+03  2.285161e+03 0.0 0.0 9.0
 1  1 1 2 103   0 -1.097767e+03 -3.977830e+02  2.570661e+03  2.823406e+03 0.0047 0.0 9.0
22  1 1 2   0   0  1.097767e+03  3.977830e+02 -2.000908e+03  2.316669e+03 0.0 0.0 9.0
#pdf 21 1 4.392175e-01 3.515633e-01 5000.0 6.354747e-03 1.914646e-02
</event>
<event>
4 7 1.0 5000.0 7.905138e-03 7.739137e-02
 1 -1 0 0 101   0  0.000000e+00  0.000000e+00  2.999123e+03  2.999123e+03 0.0 0.0 9.0
21 -1 0 0 103 101  0.000000e+00  0.000000e+00 -2.165070e+03  2.165070e+03 0.0 0.0 9.0
 1  1 1 2 103   0 -1.161083e+03 -2.083780e+03  1.325083e+03  2.728754e+03 0.0047 0.0 9.0
22  1 1 2   0   0  1.161083e+03  2.083780e+03 -4.910300e+02  2.435439e+03 0.0 0.0 9.0
#pdf 1 21 4.614036e-01 3.330876e-01 5000.0 2.453949e-02 7.315965e-02
</event>
<event>
4 7 1.0 5000.0 7.905138e-03 7.739137e-02
21 -1 0 0 103 101  0.000000e+00  0.000000e+00  2.667975e+03  2.667975e+03 0.0 0.0 9.0
 1 -1 0 0 101   0  0.000000e+00  0.000000e+00 -2.316108e+03  2.316108e+03 0.0 0.0 9.0
 1  1 1 2 103   0  3.568919e+02 -2.114488e+03 -1.084545e+03  2.403054e+03 0.0047 0.0 9.0
22  1 1 2   0   0 -3.568919e+02  2.114488e+03  1.436412e+03  2.581029e+03 0.0 0.0 9.0
#pdf 21 1 4.104577e-01 3.563243e-01 5000.0 9.180127e-03 1.804536e-02
</event>
<event>
4 7 1.0 5000.0 7.905138e-03 7.739137e-02
21 -1 0 0 103 101  0.000000e+00  0.000000e+00  2.193114e+03  2.193114e+03 0.0 0.0 9.0
 1 -1 0 0 101   0  0.000000e+00  0.000000e+00 -2.625086e+03  2.625086e+03 0.0 0.0 9.0
 1  1 1 2 103   0  1.733069e+03  2.664230e+02  1.428502e+03  2.261665e+03 0.0047 0.0 9.0
22  1 1 2   0   0 -1.733069e+03 -2.664230e+02 -1.860474e+03  2.556535e+03 0.0 0.0 9.0
#pdf 21 1 3.374022e-01 4.038594e-01 5000.0 2.277748e-02 9.982342e-03
</event>
<event>
4 7 1.0 5000.0 7.905138e-03 7.739137e-02
 1 -1 0 0 101   0  0.000000e+00  0.000000e+00  2.709513e+03  2.709513e+03 0.0 0.0 9.0
21 -1 0 0 103 101  0.000000e+00  0.000000e+00 -2.255458e+03  2.255458e+03 0.0 0.0 9.0
22  1 1 2   0   0  1.712848e+02 -2.450734e+03  5.034238e+02  2.507762e+03 0.0 0.0 9.0
 1  1 1 2 103   0 -1.712848e+02  2.450734e+03 -4.936928e+01  2.457208e+03 0.0047 0.0 9.0
#pdf 1 21 4.168481e-01 3.469936e-01 5000.0 3.719228e-02 6.593795e-02
</event>
<event>
4 7 1.0 5000.0 7.905138e-03 7.739137e-02
 1 -1 0 0 101   0  0.000000e+00  0.000000e+00  1.440857e+03  1.440857e+03 0.0 0.0 9.0
21 -1 0 0 103 101  0.000000e+00  0.000000e+00 -3.841130e+03  3.841130e+03 0.0 0.0 9.0
 1  1 1 2 103   0  9.923727e+01  9.223471e+02 -3.627134e+03  3.743884e+03 0.0047 0.0 9.0
22  1 1 2   0   0 -9.923727e+01 -9.223471e+02  1.226860e+03  1.538102e+03 0.0 0.0 9.0
#pdf 1 21 2.216703e-01 5.909431e-01 5000.0 1.525188e-01 5.436475e-03
</event>
<event>
4 7 1.0 5000.0 7.905138e-03 7.739137e-02
 1 -1 0 0 101   0  0.000000e+00  0.000000e+00  3.974110e+03  3.974110e+03 0.0 0.0 9.0
21 -1 0 0 103 101  0.000000e+00  0.000000e+00 -1.504705e+03  1.504705e+03 0.0 0.0 9.0
 1  1 1 2 103   0  5.813753e+02 -1.360900e+03 -9.461195e+02  1.756470e+03 0.0047 0.0 9.0
22  1 1 2   0   0 -5.813753e+02  1.360900e+03  3.415524e+03  3.722345e+03 0.0 0.0 9.0
#pdf 1 21 6.114015e-01 2.314931e-01 5000.0 4.066138e-03 1.438588e-01
</event>
<event>
4 7 1.0 5000.0 7.905138e-03 7.739137e-02
 1 -1 0 0 101   0  0.000000e+00  0.000000e+00  2.063753e+03  2.063753e+03 0.0 0.0 9.0
21 -1 0 0 103 101  0.000000e+00  0.000000e+00 -2.993010e+03  2.993010e+03 0.0 0.0 9.0
 1  1 1 2 103   0 -1.334433e+02  1.973965e+03  1.065588e+03  2.247181e+03 0.0047 0.0 9.0
22  1 1 2   0   0  1.334433e+02 -1.973965e+03 -1.994845e+03  2.809582e+03 0.0 0.0 9.0
#pdf 1 21 3.175005e-01 4.604631e-01 5000.0 8.191551e-02 2.476746e-02
</event>
<event>
4 7 1.0 5000.0 7.905138e-03 7.739137e-02
21 -1 0 0 103 101  0.000000e+00  0.000000e+00  2.935037e+03  2.935037e+03 0.0 0.0 9.0
 1 -1 0 0 101   0  0.000000e+00  0.000000e+00 -2.144856e+03  2.144856e+03 0.0 0.0 9.0
 1  1 1 2 103   0  1.179389e+03  1.889032e+02  2.628767e+03  2.887396e+03 0.0047 0.0 9.0
22  1 1 2   0   0 -1.179389e+03 -1.889032e+02 -1.838586e+03  2.192497e+03 0.0 0.0 9.0
#pdf 21 1 4.515441e-01 3.299779e-01 5000.0 5.408127e-03 2.495301e-02
</event>
<event>
4 7 1.0 5000.0 7.905138e-03 7.739137e-02
21 -1 0 0 103 101  0.000000e+00  0.000000e+00  2.934525e+03  2.934525e+03 0.0 0.0 9.0
 1 -1 0 0 101   0  0.000000e+00  0.000000e+00 -2.025793e+03  2.025793e+03 0.0 0.0 9.0
22  1 1 2   0   0 -5.976189e+02 -1.604847e+03 -1.311040e+03  2.156735e+03 0.0 0.0 9.0
 1  1 1 2 103   0  5.976189e+02  1.604847e+03  2.219773e+03  2.803582e+03 0.0047 0.0 9.0
#pdf 21 1 4.514654e-01 3.116604e-01 5000.0 5.413669e-03 3.124740e-02
</event>
<event>
4 7 1.0 5000.0 7.905138e-03 7.739137e-02
21 -1 0 0 103 101  0.000000e+00  0.000000e+00  2.975713e+03  2.975713e+03 0.0 0.0 9.0
 1 -1 0 0 101   0  0.000000e+00  0.000000e+00 -2.017624e+03  2.017624e+03 0.0 0.0 9.0
22  1 1 2   0   0  1.402993e+03  4.467265e+02 -1.516584e+03  2.113760e+03 0.0 0.0 9.0
 1  1 1 2 103   0 -1.402993e+03 -4.467265e+02  2.474673e+03  2.879576e+03 0.0047 0.0 9.0
#pdf 21 1 4.578019e-01 3.104036e-01 5000.0 4.979274e-03 3.173709e-02
</event>
<event>
4 7 1.0 5000.0 7.905138e-03 7.739137e-02
21 -1 0 0 103 101  0.000000e+00  0.000000e+00  2.299063e+03  2.299063e+03 0.0 0.0 9.0
 1 -1 0 0 101   0  0.000000e+00  0.000000e+00 -2.800771e+03  2.800771e+03 0.0 0.0 9.0
 1  1 1 2 103   0  1.736451e+03  4.155501e+01 -2.109779e+03  2.732793e+03 0.0047 0.0 9.0
22  1 1 2   0   0 -1.736451e+03 -4.155501e+01  1.608072e+03  2.367041e+03 0.0 0.0 9.0
#pdf 21 1 3.537020e-01 4.308878e-01 5000.0 1.864419e-02 7.070272e-03
</event>
<event>
4 7 1.0 5000.0 7.905138e-03 7.739137e-02
 1 -1 0 0 101   0  0.000000e+00  0.000000e+00  2.192453e+03  2.192453e+03 0.0 0.0 9.0
21 -1 0 0 103 101  0.000000e+00  0.000000e+00 -2.811709e+03  2.811709e+03 0.0 0.0 9.0
 1  1 1 2 103   0 -1.810012e+03 -1.266913e+03  8.319866e+02  2.360808e+03 0.0047 0.0 9.0
22  1 1 2   0   0  1.810012e+03  1.266913e+03 -1.451243e+03  2.643354e+03 0.0 0.0 9.0
#pdf 1 21 3.373005e-01 4.325707e-01 5000.0 7.091416e-02 3.227963e-02
</event>
<event>
4 7 1.0 5000.0 7.905138e-03 7.739137e-02
 1 -1 0 0 101   0  0.000000e+00  0.000000e+00  3.081340e+03  3.081340e+03 0.0 0.0 9.0
21 -1 0 0 103 101  0.000000e+00  0.000000e+00 -2.009728e+03  2.009728e+03 0.0 0.0 9.0
22  1 1 2   0   0  3.382469e+02 -1.022247e+03  2.830712e+03  3.028586e+03 0.0 0.0 9.0
 1  1 1 2 103   0 -3.382469e+02  1.022247e+03 -1.759100e+03  2.062483e+03 0.0047 0.0 9.0
#pdf 1 21 4.740524e-01 3.091890e-01 5000.0 2.163278e-02 8.688326e-02
</event>
<event>
4 7 1.0 5000.0 7.905138e-03 7.739137e-02
21 -1 0 0 103 101  0.000000e+00  0.000000e+00  1.597085e+03  1.597085e+03 0.0 0.0 9.0
 1 -1 0 0 101   0  0.000000e+00  0.000000e+00 -3.918498e+03  3.918498e+03 0.0 0.0 9.0
22  1 1 2   0   0 -9.450808e+02 -2.310903e+03 -9.873771e+02  2.684840e+03 0.0 0.0 9.0
 1  1 1 2 103   0  9.450808e+02  2.310903e+03 -1.334037e+03  2.830743e+03 0.0047 0.0 9.0
#pdf 21 1 2.457053e-01 6.028459e-01 5000.0 7.032026e-02 6.133768e-04
</event>
<event>
4 7 1.0 5000.0 7.905138e-03 7.739137e-02
21 -1 0 0 103 101  0.000000e+00  0.000000e+00  3.329638e+03  3.329638e+03 0.0 0.0 9.0
 1 -1 0 0 101   0  0.000000e+00  0.000000e+00 -1.748730e+03  1.748730e+03 0.0 0.0 9.0
22  1 1 2   0   0 -1.218404e+03 -1.851761e+02  2.973497e+03  3.218771e+03 0.0 0.0 9.0
 1  1 1 2 103   0  1.218404e+03  1.851761e+02 -1.392589e+03  1.859597e+03 0.0047 0.0 9.0
#pdf 21 1 5.122520e-01 2.690353e-01 5000.0 2.377611e-03 5.266706e-02
</event>
<event>
4 7 1.0 5000.0 7.905138e-03 7.739137e-02
21 -1 0 0 103 101  0.000000e+00  0.000000e+00  1.544515e+03  1.544515e+03 0.0 0.0 9.0
 1 -1 0 0 101   0  0.000000e+00  0.000000e+00 -3.658049e+03  3.658049e+03 0.0 0.0 9.0
 1  1 1 2 103   0 -2.203588e+03  4.715022e+02 -2.292301e+02  2.265096e+03 0.0047 0.0 9.0
22  1 1 2   0   0  2.203588e+03 -4.715022e+02 -1.884303e+03  2.937467e+03 0.0 0.0 9.0
#pdf 21 1 2.376177e-01 5.627767e-01 5000.0 7.789835e-02 1.144549e-03
</event>
<event>
4 7 1.0 5000.0 7.905138e-03 7.739137e-02
21 -1 0 0 103 101  0.000000e+00  0.000000e+00  2.831178e+03  2.831178e+03 0.0 0.0 9.0
 1 -1 0 0 101   0  0.000000e+00  0.000000e+00 -2.141141e+03  2.141141e+03 0.0 0.0 9.0
 1  1 1 2 103   0 -1.858353e+03 -1.816414e+02 -1.275492e+03  2.261272e+03 0.0047 0.0 9.0
22  1 1 2   0   0  1.858353e+03  1.816414e+02  1.965530e+03  2.711047e+03 0.0 0.0 9.0
#pdf 21 1 4.355659e-01 3.294063e-01 5000.0 6.660248e-03 2.512824e-02
</event>
<event>
4 7 1.0 5000.0 7.905138e-03 7.739137e-02
21 -1 0 0 103 101  0.000000e+00  0.000000e+00  1.849683e+03  1.849683e+03 0.0 0.0 9.0
 1 -1 0 0 101   0  0.000000e+00  0.000000e+00 -3.422259e+03  3.422259e+03 0.0 0.0 9.0
 1  1 1 2 103   0 -6.167541e+02  2.237865e+03 -1.802970e+03  2.939239e+03 0.0047 0.0 9.0
22  1 1 2   0   0  6.167541e+02 -2.237865e+03  2.303941e+02  2.332703e+03 0.0 0.0 9.0
#pdf 21 1 2.845666e-01 5.265014e-01 5000.0 4.351343e-02 1.944490e-03
</event>
<event>
4 7 1.0 5000.0 7.905138e-03 7.739137e-02
21 -1 0 0 103 101  0.000000e+00  0.000000e+00  2.245639e+03  2.245639e+03 0.0 0.0 9.0
 1 -1 0 0 101   0  0.000000e+00  0.000000e+00 -2.763707e+03  2.763707e+03 0.0 0.0 9.0
22  1 1 2   0   0 -1.982252e+03 -1.068865e+03  8.118350e+02  2.393924e+03 0.0 0.0 9.0
 1  1 1 2 103   0  1.982252e+03  1.068865e+03 -1.329903e+03  2.615423e+03 0.0047 0.0 9.0
#pdf 21 1 3.454829e-01 4.251857e-01 5000.0 2.063211e-02 7.608035e-03
</event>
<event>
4 7 1.0 5000.0 7.905138e-03 7.739137e-02
 1 -1 0 0 101   0  0.000000e+00  0.000000e+00  5.189615e+03  5.189615e+03 0.0 0.0 9.0
21 -1 0 0 103 101  0.000000e+00  0.000000e+00 -1.162645e+03  1.162645e+03 0.0 0.0 9.0
22  1 1 2   0   0  2.436595e+03  6.074534e+01  2.407793e+03  3.426099e+03 0.0 0.0 9.0
 1  1 1 2 103   0 -2.436595e+03 -6.074534e+01  1.619176e+03  2.926161e+03 0.0047 0.0 9.0
#pdf 1 21 7.984023e-01 1.788685e-01 5000.0 8.395402e-05 1.945418e-01
</event>
<event>
4 7 1.0 5000.0 7.905138e-03 7.739137e-02
21 -1 0 0 103 101  0.000000e+00  0.000000e+00  2.925750e+03  2.925750e+03 0.0 0.0 9.0
 1 -1 0 0 101   0  0.000000e+00  0.000000e+00 -2.177296e+03  2.177296e+03 0.0 0.0 9.0
22  1 1 2   0   0  1.156833e+03 -2.069877e+01  2.641858e+03  2.884112e+03 0.0 0.0 9.0
 1  1 1 2 103   0 -1.156833e+03  2.069877e+01 -1.893403e+03  2.218934e+03 0.0047 0.0 9.0
#pdf 21 1 4.501154e-01 3.349686e-01 5000.0 5.509079e-03 2.347056e-02
</event>
<event>
4 7 1.0 5000.0 7.905138e-03 7.739137e-02
21 -1 0 0 103 101  0.000000e+00  0.000000e+00  2.220844e+03  2.220844e+03 0.0 0.0 9.0
 1 -1 0 0 101   0  0.000000e+00  0.000000e+00 -2.841919e+03  2.841919e+03 0.0 0.0 9.0
22  1 1 2   0   0 -2.023159e+03  1.140517e+03  6.546199e+02  2.412981e+03 0.0 0.0 9.0
 1  1 1 2 103   0  2.023159e+03 -1.140517e+03 -1.275694e+03  2.649782e+03 0.0047 0.0 9.0
#pdf 21 1 3.416684e-01 4.372183e-01 5000.0 2.161702e-02 6.520687e-03
</event>
<event>
4 7 1.0 5000.0 7.905138e-03 7.739137e-02
21 -1 0 0 103 101  0.000000e+00  0.000000e+00  1.811708e+03  1.811708e+03 0.0 0.0 9.0
 1 -1 0 0 101   0  0.000000e+00  0.000000e+00 -3.193440e+03  3.193440e+03 0.0 0.0 9.0
 1  1 1 2 103   0  2.157357e+03  7.811313e+02  6.028199e+01  2.295210e+03 0.0047 0.0 9.0
22  1 1 2   0   0 -2.157357e+03 -7.811313e+02 -1.442014e+03  2.709937e+03 0.0 0.0 9.0
#pdf 21 1 2.787242e-01 4.912984e-01 5000.0 4.675352e-02 3.175853e-03
</event>
<event>
4 7 1.0 5000.0 7.905138e-03 7.739137e-02
 1 -1 0 0 101   0  0.000000e+00  0.000000e+00  3.924216e+03  3.924216e+03 0.0 0.0 9.0
21 -1 0 0 103 101  0.000000e+00  0.000000e+00 -1.585429e+03  1.585429e+03 0.0 0.0 9.0
 1  1 1 2 103   0 -3.215397e+02  1.484273e+03  3.354718e+03  3.682470e+03 0.0047 0.0 9.0
22  1 1 2   0   0  3.215397e+02 -1.484273e+03 -1.015930e+03  1.827175e+03 0.0 0.0 9.0
#pdf 1 21 6.037255e-01 2.439121e-01 5000.0 4.544495e-03 1.333902e-01
</event>
<event>
4 7 1.0 5000.0 7.905138e-03 7.739137e-02
 1 -1 0 0 101   0  0.000000e+00  0.000000e+00  1.450243e+03  1.450243e+03 0.0 0.0 9.0
21 -1 0 0 103 101  0.000000e+00  0.000000e+00 -3.152442e+03  3.152442e+03 0.0 0.0 9.0
22  1 1 2   0   0 -6.311304e+02  1.377130e+03 -2.475220e+03  2.901987e+03 0.0 0.0 9.0
 1  1 1 2 103   0  6.311304e+02 -1.377130e+03  7.730217e+02  1.700698e+03 0.0047 0.0 9.0
#pdf 1 21 2.231144e-01 4.849910e-01 5000.0 1.512235e-01 1.933243e-02
</event>
<event>
4 7 1.0 5000.0 7.905138e-03 7.739137e-02
 1 -1 0 0 101   0  0.000000e+00  0.000000e+00  2.039161e+03  2.039161e+03 0.0 0.0 9.0
21 -1 0 0 103 101  0.000000e+00  0.000000e+00 -3.064747e+03  3.064747e+03 0.0 0.0 9.0
22  1 1 2   0   0 -1.856481e+03  1.193700e+03 -1.711148e+03  2.792753e+03 0.0 0.0 9.0
 1  1 1 2 103   0  1.856481e+03 -1.193700e+03  6.855624e+02  2.311155e+03 0.0047 0.0 9.0
#pdf 1 21 3.137171e-01 4.714995e-01 5000.0 8.414940e-02 2.219840e-02
</event>
<event>
4 7 1.0 5000.0 7.905138e-03 7.739137e-02
21 -1 0 0 103 101  0.000000e+00  0.000000e+00  4.024029e+03  4.024029e+03 0.0 0.0 9.0
 1 -1 0 0 101   0  0.000000e+00  0.000000e+00 -1.514212e+03  1.514212e+03 0.0 0.0 9.0
22  1 1 2   0   0 -2.217486e+03 -9.796673e+02  7.332461e+02  2.532714e+03 0.0 0.0 9.0
 1  1 1 2 103   0  2.217486e+03  9.796673e+02  1.776570e+03  3.005527e+03 0.0047 0.0 9.0
#pdf 21 1 6.190814e-01 2.329558e-01 5000.0 4.705144e-04 8.253911e-02
</event>
<event>
4 7 1.0 5000.0 7.905138e-03 7.739137e-02
 1 -1 0 0 101   0  0.000000e+00  0.000000e+00  3.329616e+03  3.329616e+03 0.0 0.0 9.0
21 -1 0 0 103 101  0.000000e+00  0.000000e+00 -1.798233e+03  1.798233e+03 0.0 0.0 9.0
22  1 1 2   0   0  1.655287e+03  1.163525e+03  2.207595e+03  2.994535e+03 0.0 0.0 9.0
 1  1 1 2 103   0 -1.655287e+03 -1.163525e+03 -6.762122e+02  2.133314e+03 0.0047 0.0 9.0
#pdf 1 21 5.122486e-01 2.766513e-01 5000.0 1.441685e-02 1.083328e-01
</event>
<event>
4 7 1.0 5000.0 7.905138e-03 7.739137e-02
21 -1 0 0 103 101  0.000000e+00  0.000000e+00  1.961813e+03  1.961813e+03 0.0 0.0 9.0
 1 -1 0 0 101   0  0.000000e+00  0.000000e+00 -2.645718e+03  2.645718e+03 0.0 0.0 9.0
22  1 1 2   0   0 -1.218526e+03  1.601969e+03  7.373821e+02  2.143558e+03 0.0 0.0 9.0
 1  1 1 2 103   0  1.218526e+03 -1.601969e+03 -1.421287e+03  2.463974e+03 0.0047 0.0 9.0
#pdf 21 1 3.018174e-01 4.070336e-01 5000.0 3.523523e-02 9.589132e-03
</event>
<event>
4 7 1.0 5000.0 7.905138e-03 7.739137e-02
 1 -1 0 0 101   0  0.000000e+00  0.000000e+00  1.981865e+03  1.981865e+03 0.0 0.0 9.0
21 -1 0 0 103 101  0.000000e+00  0.000000e+00 -3.233601e+03  3.233601e+03 0.0 0.0 9.0
 1  1 1 2 103   0 -1.993192e+03  3.360688e+01 -2.233172e+03  2.993493e+03 0.0047 0.0 9.0
22  1 1 2   0   0  1.993192e+03 -3.360688e+01  9.814360e+02  2.221972e+03 0.0 0.0 9.0
#pdf 1 21 3.049023e-01 4.974770e-01 5000.0 8.952459e-02 1.694329e-02
</event>
<event>
4 7 1.0 5000.0 7.905138e-03 7.739137e-02
 1 -1 0 0 101   0  0.000000e+00  0.000000e+00  2.572334e+03  2.572334e+03 0.0 0.0 9.0
21 -1 0 0 103 101  0.000000e+00  0.000000e+00 -2.410036e+03  2.410036e+03 0.0 0.0 9.0
 1  1 1 2 103   0 -1.335217e+03  6.036655e+02  2.095226e+03  2.556793e+03 0.0047 0.0 9.0
22  1 1 2   0   0  1.335217e+03 -6.036655e+02 -1.932928e+03  2.425577e+03 0.0 0.0 9.0
#pdf 1 21 3.957437e-01 3.707747e-01 5000.0 4.464258e-02 5.478370e-02
</event>
<event>
4 7 1.0 5000.0 7.905138e-03 7.739137e-02
21 -1 0 0 103 101  0.000000e+00  0.000000e+00  4.002387e+03  4.002387e+03 0.0 0.0 9.0
 1 -1 0 0 101   0  0.000000e+00  0.000000e+00 -1.479344e+03  1.479344e+03 0.0 0.0 9.0
22  1 1 2   0   0  2.111951e+03 -1.086414e+02 -9.426805e+01  2.116844e+03 0.0 0.0 9.0
 1  1 1 2 103   0 -2.111951e+03  1.086414e+02  2.617311e+03  3.364886e+03 0.0047 0.0 9.0
#pdf 21 1 6.157518e-01 2.275913e-01 5000.0 4.970507e-04 8.828208e-02
</event>
<event>
4 7 1.0 5000.0 7.905138e-03 7.739137e-02
 1 -1 0 0 101   0  0.000000e+00  0.000000e+00  3.388275e+03  3.388275e+03 0.0 0.0 9.0
21 -1 0 0 103 101  0.000000e+00  0.000000e+00 -1.659873e+03  1.659873e+03 0.0 0.0 9.0
 1  1 1 2 103   0 -7.753759e+02  1.339513e+03  2.776618e+03  3.178854e+03 0.0047 0.0 9.0
22  1 1 2   0   0  7.753759e+02 -1.339513e+03 -1.048216e+03  1.869294e+03 0.0 0.0 9.0
#pdf 1 21 5.212730e-01 2.553651e-01 5000.0 1.302295e-02 1.242152e-01
</event>
<event>
4 7 1.0 5000.0 7.905138e-03 7.739137e-02
21 -1 0 0 103 101  0.000000e+00  0.000000e+00  2.029261e+03  2.029261e+03 0.0 0.0 9.0
 1 -1 0 0 101   0  0.000000e+00  0.000000e+00 -3.168796e+03  3.168796e+03 0.0 0.0 9.0
 1  1 1 2 103   0  1.094056e+03 -1.934953e+03 -1.820569e+03  2.873234e+03 0.0047 0.0 9.0
22  1 1 2   0   0 -1.094056e+03  1.934953e+03  6.810339e+02  2.324824e+03 0.0 0.0 9.0
#pdf 21 1 3.121941e-01 4.875071e-01 5000.0 3.104155e-02 3.343751e-03
</event>
<event>
4 7 1.0 5000.0 7.905138e-03 7.739137e-02
 1 -1 0 0 101   0  0.000000e+00  0.000000e+00  1.715045e+03  1.715045e+03 0.0 0.0 9.0
21 -1 0 0 103 101  0.000000e+00  0.000000e+00 -3.641854e+03  3.641854e+03 0.0 0.0 9.0
22  1 1 2   0   0  1.743157e+03  4.044007e+02 -2.833195e+03  3.350990e+03 0.0 0.0 9.0
 1  1 1 2 103   0 -1.743157e+03 -4.044007e+02  9.063865e+02  2.005910e+03 0.0047 0.0 9.0
#pdf 1 21 2.638532e-01 5.602852e-01 5000.0 1.177026e-01 8.158035e-03
</event>
<event>
4 7 1.0 5000.0 7.905138e-03 7.739137e-02
21 -1 0 0 103 101  0.000000e+00  0.000000e+00  2.028973e+03  2.028973e+03 0.0 0.0 9.0
 1 -1 0 0 101   0  0.000000e+00  0.000000e+00 -3.069435e+03  3.069435e+03 0.0 0.0 9.0
22  1 1 2   0   0 -1.880498e+03  7.737204e+01  1.153760e+03  2.207583e+03 0.0 0.0 9.0
 1  1 1 2 103   0  1.880498e+03 -7.737204e+01 -2.194222e+03  2.890825e+03 0.0047 0.0 9.0
#pdf 21 1 3.121497e-01 4.722208e-01 5000.0 3.105861e-02 4.111070e-03
</event>
<event>
4 7 1.0 5000.0 7.905138e-03 7.739137e-02
 1 -1 0 0 101   0  0.000000e+00  0.000000e+00  3.114332e+03  3.114332e+03 0.0 0.0 9.0
21 -1 0 0 103 101  0.000000e+00  0.000000e+00 -1.969956e+03  1.969956e+03 0.0 0.0 9.0
22  1 1 2   0   0 -6.947512e+02  1.878673e+03  2.067614e+03  2.878736e+03 0.0 0.0 9.0
 1  1 1 2 103   0  6.947512e+02 -1.878673e+03 -9.232386e+02  2.205552e+03 0.0047 0.0 9.0
#pdf 1 21 4.791280e-01 3.030701e-01 5000.0 2.054033e-02 9.066732e-02
</event>
<event>
4 7 1.0 5000.0 7.905138e-03 7.739137e-02
 1 -1 0 0 101   0  0.000000e+00  0.000000e+00  2.076159e+03  2.076159e+03 0.0 0.0 9.0
21 -1 0 0 103 101  0.000000e+00  0.000000e+00 -2.870026e+03  2.870026e+03 0.0 0.0 9.0
 1  1 1 2 103   0  2.391614e+02 -2.236852e+03  5.631020e+02  2.319006e+03 0.0047 0.0 9.0
22  1 1 2   0   0 -2.391614e+02  2.236852e+03 -1.356969e+03  2.627179e+03 0.0 0.0 9.0
#pdf 1 21 3.194091e-01 4.415425e-01 5000.0 8.080661e-02 2.970629e-02
</event>
<event>
4 7 1.0 5000.0 7.905138e-03 7.739137e-02
 1 -1 0 0 101   0  0.000000e+00  0.000000e+00  2.411387e+03  2.411387e+03 0.0 0.0 9.0
21 -1 0 0 103 101  0.000000e+00  0.000000e+00 -2.649329e+03  2.649329e+03 0.0 0.0 9.0
 1  1 1 2 103   0  7.845918e+02  1.785280e+03 -1.728778e+03  2.606047e+03 0.0047 0.0 9.0
22  1 1 2   0   0 -7.845918e+02 -1.785280e+03  1.490835e+03  2.454669e+03 0.0 0.0 9.0
#pdf 1 21 3.709826e-01 4.075891e-01 5000.0 5.469301e-02 4.033717e-02
</event>
<event>
4 7 1.0 5000.0 7.905138e-03 7.739137e-02
21 -1 0 0 103 101  0.000000e+00  0.000000e+00  1.756468e+03  1.756468e+03 0.0 0.0 9.0
 1 -1 0 0 101   0  0.000000e+00  0.000000e+00 -3.529846e+03  3.529846e+03 0.0 0.0 9.0
 1  1 1 2 103   0 -1.865629e+03 -1.111936e+03  4.060423e+02  2.209490e+03 0.0047 0.0 9.0
22  1 1 2   0   0  1.865629e+03  1.111936e+03 -2.179420e+03  3.076824e+03 0.0 0.0 9.0
#pdf 21 1 2.702258e-01 5.430532e-01 5000.0 5.190112e-02 1.530736e-03
</event>
<event>
4 7 1.0 5000.0 7.905138e-03 7.739137e-02
 1 -1 0 0 101   0  0.000000e+00  0.000000e+00  3.589558e+03  3.589558e+03 0.0 0.0 9.0
21 -1 0 0 103 101  0.000000e+00  0.000000e+00 -1.723285e+03  1.723285e+03 0.0 0.0 9.0
 1  1 1 2 103   0  2.927044e+02  9.073502e+02 -1.520365e+03  1.794566e+03 0.0047 0.0 9.0
22  1 1 2   0   0 -2.927044e+02 -9.073502e+02  3.386637e+03  3.518277e+03 0.0 0.0 9.0
#pdf 1 21 5.522397e-01 2.651208e-01 5000.0 9.011253e-03 1.167515e-01
</event>
<event>
4 7 1.0 5000.0 7.905138e-03 7.739137e-02
 1 -1 0 0 101   0  0.000000e+00  0.000000e+00  2.584560e+03  2.584560e+03 0.0 0.0 9.0
21 -1 0 0 103 101  0.000000e+00  0.000000e+00 -2.380955e+03  2.380955e+03 0.0 0.0 9.0
 1  1 1 2 103   0  1.519416e+03 -1.818928e+03 -6.313422e+02  2.452696e+03 0.0047 0.0 9.0
22  1 1 2   0   0 -1.519416e+03  1.818928e+03  8.349470e+02  2.512819e+03 0.0 0.0 9.0
#pdf 1 21 3.976246e-01 3.663008e-01 5000.0 4.393756e-02 5.677457e-02
</event>
<event>
4 7 1.0 5000.0 7.905138e-03 7.739137e-02
 1 -1 0 0 101   0  0.000000e+00  0.000000e+00  1.645367e+03  1.645367e+03 0.0 0.0 9.0
21 -1 0 0 103 101  0.000000e+00  0.000000e+00 -3.809870e+03  3.809870e+03 0.0 0.0 9.0
22  1 1 2   0   0 -1.520034e+03 -1.687200e+02 -3.241860e+03  3.584498e+03 0.0 0.0 9.0
 1  1 1 2 103   0  1.520034e+03  1.687200e+02  1.077357e+03  1.870740e+03 0.0047 0.0 9.0
#pdf 1 21 2.531335e-01 5.861339e-01 5000.0 1.259692e-01 5.806963e-03
</event>
<event>
4 7 1.0 5000.0 7.905138e-03 7.739137e-02
 1 -1 0 0 101   0  0.000000e+00  0.000000e+00  4.886106e+03  4.886106e+03 0.0 0.0 9.0
21 -1 0 0 103 101  0.000000e+00  0.000000e+00 -1.261299e+03  1.261299e+03 0.0 0.0 9.0
 1  1 1 2 103   0 -2.420033e+03 -1.322572e+02  1.147038e+03  2.681371e+03 0.0047 0.0 9.0
22  1 1 2   0   0  2.420033e+03  1.322572e+02  2.477769e+03  3.466034e+03 0.0 0.0 9.0
#pdf 1 21 7.517086e-01 1.940460e-01 5000.0 2.937292e-04 1.788462e-01
</event>
<event>
4 7 1.0 5000.0 7.905138e-03 7.739137e-02
21 -1 0 0 103 101  0.000000e+00  0.000000e+00  3.178539e+03  3.178539e+03 0.0 0.0 9.0
 1 -1 0 0 101   0  0.000000e+00  0.000000e+00 -2.212524e+03  2.212524e+03 0.0 0.0 9.0
22  1 1 2   0   0  1.629152e+03  1.741147e+02  2.602532e+03  3.075325e+03 0.0 0.0 9.0
 1  1 1 2 103   0 -1.629152e+03 -1.741147e+02 -1.636517e+03  2.315738e+03 0.0047 0.0 9.0
#pdf 21 1 4.890059e-01 3.403883e-01 5000.0 3.276398e-03 2.195824e-02
</event>
<event>
4 7 1.0 5000.0 7.905138e-03 7.739137e-02
21 -1 0 0 103 101  0.000000e+00  0.000000e+00  2.859710e+03  2.859710e+03 0.0 0.0 9.0
 1 -1 0 0 101   0  0.000000e+00  0.000000e+00 -2.358327e+03  2.358327e+03 0.0 0.0 9.0
 1  1 1 2 103   0 -1.428221e+03  1.608324e+03 -1.211273e+03  2.468543e+03 0.0047 0.0 9.0
22  1 1 2   0   0  1.428221e+03 -1.608324e+03  1.712657e+03  2.749494e+03 0.0 0.0 9.0
#pdf 21 1 4.399554e-01 3.628195e-01 5000.0 6.294199e-03 1.666288e-02
</event>
<event>
4 7 1.0 5000.0 7.905138e-03 7.739137e-02
 1 -1 0 0 101   0  0.000000e+00  0.000000e+00  3.292296e+03  3.292296e+03 0.0 0.0 9.0
21 -1 0 0 103 101  0.000000e+00  0.000000e+00 -2.052443e+03  2.052443e+03 0.0 0.0 9.0
 1  1 1 2 103   0  1.114723e+03 -3.166046e+02 -1.772215e+03  2.117449e+03 0.0047 0.0 9.0
22  1 1 2   0   0 -1.114723e+03  3.166046e+02  3.012068e+03  3.227290e+03 0.0 0.0 9.0
#pdf 1 21 5.065071e-01 3.157605e-01 5000.0 1.536121e-02 8.293685e-02
</event>
<event>
4 7 1.0 5000.0 7.905138e-03 7.739137e-02
 1 -1 0 0 101   0  0.000000e+00  0.000000e+00  2.440517e+03  2.440517e+03 0.0 0.0 9.0
21 -1 0 0 103 101  0.000000e+00  0.000000e+00 -2.584853e+03  2.584853e+03 0.0 0.0 9.0
 1  1 1 2 103   0 -9.354447e+02  4.060402e+02  2.224090e+03  2.446733e+03 0.0047 0.0 9.0
22  1 1 2   0   0  9.354447e+02 -4.060402e+02 -2.368426e+03  2.578637e+03 0.0 0.0 9.0
#pdf 1 21 3.754641e-01 3.976697e-01 5000.0 5.277461e-02 4.392078e-02
</event>
<event>
4 7 1.0 5000.0 7.905138e-03 7.739137e-02
 1 -1 0 0 101   0  0.000000e+00  0.000000e+00  1.481753e+03  1.481753e+03 0.0 0.0 9.0
21 -1 0 0 103 101  0.000000e+00  0.000000e+00 -3.676893e+03  3.676893e+03 0.0 0.0 9.0
22  1 1 2   0   0 -2.461090e+02  2.136466e+03 -9.497202e+01  2.152691e+03 0.0 0.0 9.0
 1  1 1 2 103   0  2.461090e+02 -2.136466e+03 -2.100168e+03  3.005955e+03 0.0047 0.0 9.0
#pdf 1 21 2.279619e-01 5.656758e-01 5000.0 1.469327e-01 7.613849e-03
</event>
<event>
4 7 1.0 5000.0 7.905138e-03 7.739137e-02
21 -1 0 0 103 101  0.000000e+00  0.000000e+00  2.582653e+03  2.582653e+03 0.0 0.0 9.0
 1 -1 0 0 101   0  0.000000e+00  0.000000e+00 -2.428020e+03  2.428020e+03 0.0 0.0 9.0
22  1 1 2   0   0  1.927352e+03 -1.012749e+03 -1.160361e+03  2.467141e+03 0.0 0.0 9.0
 1  1 1 2 103   0 -1.927352e+03  1.012749e+03  1.314994e+03  2.543532e+03 0.0047 0.0 9.0
#pdf 21 1 3.973312e-01 3.735416e-01 5000.0 1.083732e-02 1.459109e-02
</event>
<event>
4 7 1.0 5000.0 7.905138e-03 7.739137e-02
21 -1 0 0 103 101  0.000000e+00  0.000000e+00  3.385907e+03  3.385907e+03 0.0 0.0 9.0
 1 -1 0 0 101   0  0.000000e+00  0.000000e+00 -1.905847e+03  1.905847e+03 0.0 0.0 9.0
22  1 1 2   0   0 -1.845438e+03  1.152031e+03 -6.260568e+02  2.263794e+03 0.0 0.0 9.0
 1  1 1 2 103   0  1.845438e+03 -1.152031e+03  2.106117e+03  3.027961e+03 0.0047 0.0 9.0
#pdf 21 1 5.209088e-01 2.932073e-01 5000.0 2.104428e-03 3.918344e-02
</event>
<event>
4 7 1.0 5000.0 7.905138e-03 7.739137e-02
 1 -1 0 0 101   0  0.000000e+00  0.000000e+00  2.928208e+03  2.928208e+03 0.0 0.0 9.0
21 -1 0 0 103 101  0.000000e+00  0.000000e+00 -2.139878e+03  2.139878e+03 0.0 0.0 9.0
 1  1 1 2 103   0  6.829978e+02  8.584348e+02 -1.883584e+03  2.179744e+03 0.0047 0.0 9.0
22  1 1 2   0   0 -6.829978e+02 -8.584348e+02  2.671914e+03  2.888342e+03 0.0 0.0 9.0
#pdf 1 21 4.504936e-01 3.292120e-01 5000.0 2.728492e-02 7.527172e-02
</event>
<event>
4 7 1.0 5000.0 7.905138e-03 7.739137e-02
21 -1 0 0 103 101  0.000000e+00  0.000000e+00  3.755205e+03  3.755205e+03 0.0 0.0 9.0
 1 -1 0 0 101   0  0.000000e+00  0.000000e+00 -1.705734e+03  1.705734e+03 0.0 0.0 9.0
 1  1 1 2 103   0 -1.834833e+03 -4.615492e+02 -7.888203e+02  2.049848e+03 0.0047 0.0 9.0
22  1 1 2   0   0  1.834833e+03  4.615492e+02  2.838292e+03  3.411091e+03 0.0 0.0 9.0
#pdf 21 1 5.777239e-01 2.624206e-01 5000.0 9.101164e-04 5.715400e-02
</event>
<event>
4 7 1.0 5000.0 7.905138e-03 7.739137e-02
 1 -1 0 0 101   0  0.000000e+00  0.000000e+00  2.222408e+03  2.222408e+03 0.0 0.0 9.0
21 -1 0 0 103 101  0.000000e+00  0.000000e+00 -2.690702e+03  2.690702e+03 0.0 0.0 9.0
 1  1 1 2 103   0  1.095262e+03  2.086725e+03  4.213828e+02  2.394073e+03 0.0047 0.0 9.0
22  1 1 2   0   0 -1.095262e+03 -2.086725e+03 -8.896763e+02  2.519037e+03 0.0 0.0 9.0
#pdf 1 21 3.419089e-01 4.139541e-01 5000.0 6.851626e-02 3.815510e-02
</event>
<event>
4 7 1.0 5000.0 7.905138e-03 7.739137e-02
 1 -1 0 0 101   0  0.000000e+00  0.000000e+00  3.888756e+03  3.888756e+03 0.0 0.0 9.0
21 -1 0 0 103 101  0.000000e+00  0.000000e+00 -1.603017e+03  1.603017e+03 0.0 0.0 9.0
22  1 1 2   0   0  2.997108e+02  1.672603e+03 -8.689618e+02  1.908539e+03 0.0 0.0 9.0
 1  1 1 2 103   0 -2.997108e+02 -1.672603e+03  3.154701e+03  3.583234e+03 0.0047 0.0 9.0
#pdf 1 21 5.982702e-01 2.466180e-01 5000.0 4.909347e-03 1.311828e-01
</event>
<event>
4 7 1.0 5000.0 7.905138e-03 7.739137e-02
 1 -1 0 0 101   0  0.000000e+00  0.000000e+00  2.307426e+03  2.307426e+03 0.0 0.0 9.0
21 -1 0 0 103 101  0.000000e+00  0.000000e+00 -2.151477e+03  2.151477e+03 0.0 0.0 9.0
22  1 1 2   0   0 -3.873165e+02 -2.143598e+03  5.466066e+02  2.245841e+03 0.0 0.0 9.0
 1  1 1 2 103   0  3.873165e+02  2.143598e+03 -3.906575e+02  2.213061e+03 0.0047 0.0 9.0
#pdf 1 21 3.549886e-01 3.309964e-01 5000.0 6.201868e-02 7.429383e-02
</event>
<event>
4 7 1.0 5000.0 7.905138e-03 7.739137e-02
 1 -1 0 0 101   0  0.000000e+00  0.000000e+00  2.082251e+03  2.082251e+03 0.0 0.0 9.0
21 -1 0 0 103 101  0.000000e+00  0.000000e+00 -2.130643e+03  2.130643e+03 0.0 0.0 9.0
 1  1 1 2 103   0 -1.960466e+03 -1.541586e+02 -7.787946e+02  2.115115e+03 0.0047 0.0 9.0
22  1 1 2   0   0  1.960466e+03  1.541586e+02  7.304024e+02  2.097779e+03 0.0 0.0 9.0
#pdf 1 21 3.203463e-01 3.277913e-01 5000.0 8.026577e-02 7.605693e-02
</event>
<event>
4 7 1.0 5000.0 7.905138e-03 7.739137e-02
 1 -1 0 0 101   0  0.000000e+00  0.000000e+00  2.123554e+03  2.123554e+03 0.0 0.0 9.0
21 -1 0 0 103 101  0.000000e+00  0.000000e+00 -2.910721e+03  2.910721e+03 0.0 0.0 9.0
22  1 1 2   0   0 -1.683005e+03 -1.773415e+03  6.321778e+01  2.445711e+03 0.0 0.0 9.0
 1  1 1 2 103   0  1.683005e+03  1.773415e+03 -8.503845e+02  2.588564e+03 0.0047 0.0 9.0
#pdf 1 21 3.267006e-01 4.478032e-01 5000.0 7.666368e-02 2.798742e-02
</event>
<event>
4 7 1.0 5000.0 7.905138e-03 7.739137e-02
21 -1 0 0 103 101  0.000000e+00  0.000000e+00  2.646250e+03  2.646250e+03 0.0 0.0 9.0
 1 -1 0 0 101   0  0.000000e+00  0.000000e+00 -2.382939e+03  2.382939e+03 0.0 0.0 9.0
22  1 1 2   0   0 -1.232872e+03 -2.141482e+03 -3.160977e+02  2.491152e+03 0.0 0.0 9.0
 1  1 1 2 103   0  1.232872e+03  2.141482e+03  5.794088e+02  2.538037e+03 0.0047 0.0 9.0
#pdf 21 1 4.071154e-01 3.666060e-01 5000.0 9.579177e-03 1.589906e-02
</event>
<event>
4 7 1.0 5000.0 7.905138e-03 7.739137e-02
21 -1 0 0 103 101  0.000000e+00  0.000000e+00  2.811220e+03  2.811220e+03 0.0 0.0 9.0
 1 -1 0 0 101   0  0.000000e+00  0.000000e+00 -2.290512e+03  2.290512e+03 0.0 0.0 9.0
22  1 1 2   0   0  1.039999e+03  9.570037e+02  2.378948e+03  2.767100e+03 0.0 0.0 9.0
 1  1 1 2 103   0 -1.039999e+03 -9.570037e+02 -1.858240e+03  2.334632e+03 0.0047 0.0 9.0
#pdf 21 1 4.324954e-01 3.523865e-01 5000.0 6.926589e-03 1.895202e-02
</event>
<event>
4 7 1.0 5000.0 7.905138e-03 7.739137e-02
 1 -1 0 0 101   0  0.000000e+00  0.000000e+00  3.701373e+03  3.701373e+03 0.0 0.0 9.0
21 -1 0 0 103 101  0.000000e+00  0.000000e+00 -1.585608e+03  1.585608e+03 0.0 0.0 9.0
22  1 1 2   0   0 -2.143257e+03 -4.392036e+02  2.193174e+03  3.097816e+03 0.0 0.0 9.0
 1  1 1 2 103   0  2.143257e+03  4.392036e+02 -7.740943e+01  2.189165e+03 0.0047 0.0 9.0
#pdf 1 21 5.694419e-01 2.439397e-01 5000.0 7.249557e-03 1.333676e-01
</event>
<event>
4 7 1.0 5000.0 7.905138e-03 7.739137e-02
21 -1 0 0 103 101  0.000000e+00  0.000000e+00  2.482598e+03  2.482598e+03 0.0 0.0 9.0
 1 -1 0 0 101   0  0.000000e+00  0.000000e+00 -2.507734e+03  2.507734e+03 0.0 0.0 9.0
22  1 1 2   0   0 -8.017312e+02  1.111421e+03  2.072564e+03  2.484663e+03 0.0 0.0 9.0
 1  1 1 2 103   0  8.017312e+02 -1.111421e+03 -2.097700e+03  2.505668e+03 0.0047 0.0 9.0
#pdf 21 1 3.819381e-01 3.858052e-01 5000.0 1.315329e-02 1.252902e-02
</event>
<event>
4 7 1.0 5000.0 7.905138e-03 7.739137e-02
 1 -1 0 0 101   0  0.000000e+00  0.000000e+00  3.717094e+03  3.717094e+03 0.0 0.0 9.0
21 -1 0 0 103 101  0.000000e+00  0.000000e+00 -1.674732e+03  1.674732e+03 0.0 0.0 9.0
22  1 1 2   0   0  4.159027e+02  2.435533e+03  1.396015e+03  2.837896e+03 0.0 0.0 9.0
 1  1 1 2 103   0 -4.159027e+02 -2.435533e+03  6.463468e+02  2.553930e+03 0.0047 0.0 9.0
#pdf 1 21 5.718606e-01 2.576511e-01 5000.0 7.023542e-03 1.224362e-01
</event>
<event>
4 7 1.0 5000.0 7.905138e-03 7.739137e-02
 1 -1 0 0 101   0  0.000000e+00  0.000000e+00  2.861388e+03  2.861388e+03 0.0 0.0 9.0
21 -1 0 0 103 101  0.000000e+00  0.000000e+00 -2.343609e+03  2.343609e+03 0.0 0.0 9.0
22  1 1 2   0   0  1.790703e+03 -1.752053e+03 -3.998682e+02  2.536967e+03 0.0 0.0 9.0
 1  1 1 2 103   0 -1.790703e+03  1.752053e+03  9.176471e+02  2.668029e+03 0.0047 0.0 9.0
#pdf 1 21 4.402135e-01 3.605552e-01 5000.0 3.007965e-02 5.939730e-02
</event>
<event>
4 7 1.0 5000.0 7.905138e-03 7.739137e-02
21 -1 0 0 103 101  0.000000e+00  0.000000e+00  1.585629e+03  1.585629e+03 0.0 0.0 9.0
 1 -1 0 0 101   0  0.000000e+00  0.000000e+00 -3.852548e+03  3.852548e+03 0.0 0.0 9.0
 1  1 1 2 103   0 -2.061836e+03  1.306160e+03 -7.052651e+02  2.540595e+03 0.0047 0.0 9.0
22  1 1 2   0   0  2.061836e+03 -1.306160e+03 -1.561654e+03  2.897583e+03 0.0 0.0 9.0
#pdf 21 1 2.439430e-01 5.926998e-01 5000.0 7.193325e-02 7.206029e-04
</event>
<event>
4 7 1.0 5000.0 7.905138e-03 7.739137e-02
 1 -1 0 0 101   0  0.000000e+00  0.000000e+00  1.925349e+03  1.925349e+03 0.0 0.0 9.0
21 -1 0 0 103 101  0.000000e+00  0.000000e+00 -3.123279e+03  3.123279e+03 0.0 0.0 9.0
 1  1 1 2 103   0 -2.032926e+03 -8.341106e+02 -1.719485e+03  2.790189e+03 0.0047 0.0 9.0
22  1 1 2   0   0  2.032926e+03  8.341106e+02  5.215542e+02  2.258439e+03 0.0 0.0 9.0
#pdf 1 21 2.962075e-01 4.805045e-01 5000.0 9.504942e-02 2.025153e-02
</event>
<event>
4 7 1.0 5000.0 7.905138e-03 7.739137e-02
21 -1 0 0 103 101  0.000000e+00  0.000000e+00  2.681759e+03  2.681759e+03 0.0 0.0 9.0
 1 -1 0 0 101   0  0.000000e+00  0.000000e+00 -2.190556e+03  2.190556e+03 0.0 0.0 9.0
 1  1 1 2 103   0  1.699441e+03 -7.523610e+02  1.809330e+03  2.593805e+03 0.0047 0.0 9.0
22  1 1 2   0   0 -1.699441e+03  7.523610e+02 -1.318128e+03  2.278510e+03 0.0 0.0 9.0
#pdf 21 1 4.125782e-01 3.370087e-01 5000.0 8.935717e-03 2.288802e-02
</event>
<event>
4 7 1.0 5000.0 7.905138e-03 7.739137e-02
 1 -1 0 0 101   0  0.000000e+00  0.000000e+00  2.969480e+03  2.969480e+03 0.0 0.0 9.0
21 -1 0 0 103 101  0.000000e+00  0.000000e+00 -2.051145e+03  2.051145e+03 0.0 0.0 9.0
22  1 1 2   0   0 -2.123389e+03  4.923639e+02  1.636453e+03  2.725653e+03 0.0 0.0 9.0
 1  1 1 2 103   0  2.123389e+03 -4.923639e+02 -7.181178e+02  2.294972e+03 0.0047 0.0 9.0
#pdf 1 21 4.568431e-01 3.155607e-01 5000.0 2.566245e-02 8.305476e-02
</event>
<event>
4 7 1.0 5000.0 7.905138e-03 7.739137e-02
21 -1 0 0 103 101  0.000000e+00  0.000000e+00  2.838790e+03  2.838790e+03 0.0 0.0 9.0
 1 -1 0 0 101   0  0.000000e+00  0.000000e+00 -2.209562e+03  2.209562e+03 0.0 0.0 9.0
22  1 1 2   0   0  1.739359e+03 -8.120707e+02 -1.306648e+03  2.322102e+03 0.0 0.0 9.0
 1  1 1 2 103   0 -1.739359e+03  8.120707e+02  1.935876e+03  2.726251e+03 0.0047 0.0 9.0
#pdf 21 1 4.367369e-01 3.399326e-01 5000.0 6.561100e-03 2.208110e-02
</event>
<event>
4 7 1.0 5000.0 7.905138e-03 7.739137e-02
 1 -1 0 0 101   0  0.000000e+00  0.000000e+00  1.784840e+03  1.784840e+03 0.0 0.0 9.0
21 -1 0 0 103 101  0.000000e+00  0.000000e+00 -3.320480e+03  3.320480e+03 0.0 0.0 9.0
22  1 1 2   0   0  2.231720e+03 -5.199857e+02 -1.629661e+03  2.811895e+03 0.0 0.0 9.0
 1  1 1 2 103   0 -2.231720e+03  5.199857e+02  9.402072e+01  2.293425e+03 0.0047 0.0 9.0
#pdf 1 21 2.745908e-01 5.108431e-01 5000.0 1.098054e-01 1.464380e-02
</event>
<event>
4 7 1.0 5000.0 7.905138e-03 7.739137e-02
 1 -1 0 0 101   0  0.000000e+00  0.000000e+00  2.692026e+03  2.692026e+03 0.0 0.0 9.0
21 -1 0 0 103 101  0.000000e+00  0.000000e+00 -2.386556e+03  2.386556e+03 0.0 0.0 9.0
 1  1 1 2 103   0 -1.313985e+03 -8.577269e+02 -1.841458e+03  2.419343e+03 0.0047 0.0 9.0
22  1 1 2   0   0  1.313985e+03  8.577269e+02  2.146928e+03  2.659239e+03 0.0 0.0 9.0
#pdf 1 21 4.141579e-01 3.671624e-01 5000.0 3.808670e-02 5.638682e-02
</event>
<event>
4 7 1.0 5000.0 7.905138e-03 7.739137e-02
 1 -1 0 0 101   0  0.000000e+00  0.000000e+00  2.141351e+03  2.141351e+03 0.0 0.0 9.0
21 -1 0 0 103 101  0.000000e+00  0.000000e+00 -2.148737e+03  2.148737e+03 0.0 0.0 9.0
22  1 1 2   0   0  2.766470e+02 -1.760303e+03 -1.197846e+03  2.147100e+03 0.0 0.0 9.0
 1  1 1 2 103   0 -2.766470e+02  1.760303e+03  1.190460e+03  2.142988e+03 0.0047 0.0 9.0
#pdf 1 21 3.294386e-01 3.305749e-01 5000.0 7.514703e-02 7.452398e-02
</event>
<event>
4 7 1.0 5000.0 7.905138e-03 7.739137e-02
 1 -1 0 0 101   0  0.000000e+00  0.000000e+00  4.178987e+03  4.178987e+03 0.0 0.0 9.0
21 -1 0 0 103 101  0.000000e+00  0.000000e+00 -1.491812e+03  1.491812e+03 0.0 0.0 9.0
22  1 1 2   0   0  4.382666e+02  2.014672e+03  2.942829e+03  3.593219e+03 0.0 0.0 9.0
 1  1 1 2 103   0 -4.382666e+02 -2.014672e+03 -2.556544e+02  2.077580e+03 0.0047 0.0 9.0
#pdf 1 21 6.429211e-01 2.295096e-01 5000.0 2.503513e-03 1.455803e-01
</event>
<event>
4 7 1.0 5000.0 7.905138e-03 7.739137e-02
21 -1 0 0 103 101  0.000000e+00  0.000000e+00  2.942142e+03  2.942142e+03 0.0 0.0 9.0
 1 -1 0 0 101   0  0.000000e+00  0.000000e+00 -2.153708e+03  2.153708e+03 0.0 0.0 9.0
22  1 1 2   0   0  2.076275e+03 -2.626569e+02 -1.021621e+03  2.328866e+03 0.0 0.0 9.0
 1  1 1 2 103   0 -2.076275e+03  2.626569e+02  1.810055e+03  2.766985e+03 0.0047 0.0 9.0
#pdf 21 1 4.526372e-01 3.313397e-01 5000.0 5.331516e-03 2.454017e-02
</event>
<event>
4 7 1.0 5000.0 7.905138e-03 7.739137e-02
21 -1 0 0 103 101  0.000000e+00  0.000000e+00  2.879154e+03  2.879154e+03 0.0 0.0 9.0
 1 -1 0 0 101   0  0.000000e+00  0.000000e+00 -1.840528e+03  1.840528e+03 0.0 0.0 9.0
22  1 1 2   0   0 -1.031848e+03 -1.988240e+03 -2.444484e+01  2.240180e+03 0.0 0.0 9.0
 1  1 1 2 103   0  1.031848e+03  1.988240e+03  1.063070e+03  2.479502e+03 0.0047 0.0 9.0
#pdf 21 1 4.429467e-01 2.831582e-01 5000.0 6.051897e-03 4.426892e-02
</event>
<event>
4 7 1.0 5000.0 7.905138e-03 7.739137e-02
 1 -1 0 0 101   0  0.000000e+00  0.000000e+00  3.239583e+03  3.239583e+03 0.0 0.0 9.0
21 -1 0 0 103 101  0.000000e+00  0.000000e+00 -1.956443e+03  1.956443e+03 0.0 0.0 9.0
22  1 1 2   0   0 -2.330376e+03 -7.017255e+02  1.306355e+03  2.762180e+03 0.0 0.0 9.0
 1  1 1 2 103   0  2.330376e+03  7.017255e+02 -2.321538e+01  2.433847e+03 0.0047 0.0 9.0
#pdf 1 21 4.983974e-01 3.009913e-01 5000.0 1.677648e-02 9.197275e-02
</event>
<event>
4 7 1.0 5000.0 7.905138e-03 7.739137e-02
21 -1 0 0 103 101  0.000000e+00  0.000000e+00  2.332907e+03  2.332907e+03 0.0 0.0 9.0
 1 -1 0 0 101   0  0.000000e+00  0.000000e+00 -2.665355e+03  2.665355e+03 0.0 0.0 9.0
 1  1 1 2 103   0  9.158983e+02 -2.341333e+02 -2.478797e+03  2.652946e+03 0.0047 0.0 9.0
22  1 1 2   0   0 -9.158983e+02  2.341333e+02  2.146350e+03  2.345316e+03 0.0 0.0 9.0
#pdf 21 1 3.589088e-01 4.100546e-01 5000.0 1.748055e-02 9.227368e-03
</event>
<event>
4 7 1.0 5000.0 7.905138e-03 7.739137e-02
21 -1 0 0 103 101  0.000000e+00  0.000000e+00  2.648444e+03  2.648444e+03 0.0 0.0 9.0
 1 -1 0 0 101   0  0.000000e+00  0.000000e+00 -2.353751e+03  2.353751e+03 0.0 0.0 9.0
22  1 1 2   0   0 -2.540856e+02 -1.178455e+03 -2.042884e+03  2.372065e+03 0.0 0.0 9.0
 1  1 1 2 103   0  2.540856e+02  1.178455e+03  2.337577e+03  2.630130e+03 0.0047 0.0 9.0
#pdf 21 1 4.074530e-01 3.621155e-01 5000.0 9.538185e-03 1.680743e-02
</event>
<event>
4 7 1.0 5000.0 7.905138e-03 7.739137e-02
21 -1 0 0 103 101  0.000000e+00  0.000000e+00  2.507667e+03  2.507667e+03 0.0 0.0 9.0
 1 -1 0 0 101   0  0.000000e+00  0.000000e+00 -2.513749e+03  2.513749e+03 0.0 0.0 9.0
22  1 1 2   0   0  2.729882e+02 -1.889314e+03  1.627793e+03  2.508733e+03 0.0 0.0 9.0
 1  1 1 2 103   0 -2.729882e+02  1.889314e+03 -1.633875e+03  2.512683e+03 0.0047 0.0 9.0
#pdf 21 1 3.857950e-01 3.867306e-01 5000.0 1.253064e-02 1.238366e-02
</event>
<event>
4 7 1.0 5000.0 7.905138e-03 7.739137e-02
21 -1 0 0 103 101  0.000000e+00  0.000000e+00  1.666080e+03  1.666080e+03 0.0 0.0 9.0
 1 -1 0 0 101   0  0.000000e+00  0.000000e+00 -3.645308e+03  3.645308e+03 0.0 0.0 9.0
 1  1 1 2 103   0 -7.968757e+02 -4.897837e+02  1.467362e+03  1.740129e+03 0.0047 0.0 9.0
22  1 1 2   0   0  7.968757e+02  4.897837e+02 -3.446590e+03  3.571258e+03 0.0 0.0 9.0
#pdf 21 1 2.563199e-01 5.608166e-01 5000.0 6.168946e-02 1.178826e-03
</event>
<event>
4 7 1.0 5000.0 7.905138e-03 7.739137e-02
 1 -1 0 0 101   0  0.000000e+00  0.000000e+00  2.520275e+03  2.520275e+03 0.0 0.0 9.0
21 -1 0 0 103 101  0.000000e+00  0.000000e+00 -2.509053e+03  2.509053e+03 0.0 0.0 9.0
22  1 1 2   0   0  1.474843e+03 -1.399531e+03  1.485363e+03  2.517966e+03 0.0 0.0 9.0
 1  1 1 2 103   0 -1.474843e+03  1.399531e+03 -1.474141e+03  2.511362e+03 0.0047 0.0 9.0
#pdf 1 21 3.877346e-01 3.860082e-01 5000.0 4.773605e-02 4.842397e-02
</event>
<event>
4 7 1.0 5000.0 7.905138e-03 7.739137e-02
21 -1 0 0 103 101  0.000000e+00  0.000000e+00  2.601821e+03  2.601821e+03 0.0 0.0 9.0
 1 -1 0 0 101   0  0.000000e+00  0.000000e+00 -2.314041e+03  2.314041e+03 0.0 0.0 9.0
22  1 1 2   0   0  1.063858e+03  3.408747e+02  2.332302e+03  2.586043e+03 0.0 0.0 9.0
 1  1 1 2 103   0 -1.063858e+03 -3.408747e+02 -2.044521e+03  2.329819e+03 0.0047 0.0 9.0
#pdf 21 1 4.002802e-01 3.560063e-01 5000.0 1.044291e-02 1.811653e-02
</event>
<event>
4 7 1.0 5000.0 7.905138e-03 7.739137e-02
21 -1 0 0 103 101  0.000000e+00  0.000000e+00  2.410434e+03  2.410434e+03 0.0 0.0 9.0
 1 -1 0 0 101   0  0.000000e+00  0.000000e+00 -2.357826e+03  2.357826e+03 0.0 0.0 9.0
 1  1 1 2 103   0  1.930391e+03  2.194523e+02  1.407987e+03  2.399374e+03 0.0047 0.0 9.0
22  1 1 2   0   0 -1.930391e+03 -2.194523e+02 -1.355378e+03  2.368886e+03 0.0 0.0 9.0
#pdf 21 1 3.708360e-01 3.627424e-01 5000.0 1.507894e-02 1.667865e-02
</event>
<event>
4 7 1.0 5000.0 7.905138e-03 7.739137e-02
21 -1 0 0 103 101  0.000000e+00  0.000000e+00  3.211313e+03  3.211313e+03 0.0 0.0 9.0
 1 -1 0 0 101   0  0.000000e+00  0.000000e+00 -1.985992e+03  1.985992e+03 0.0 0.0 9.0
 1  1 1 2 103   0  1.696859e+03  4.271162e+02  2.486437e+03  3.040416e+03 0.0047 0.0 9.0
22  1 1 2   0   0 -1.696859e+03 -4.271162e+02 -1.261116e+03  2.156890e+03 0.0 0.0 9.0
#pdf 21 1 4.940482e-01 3.055373e-01 5000.0 3.058960e-03 3.369140e-02
</event>
<event>
4 7 1.0 5000.0 7.905138e-03 7.739137e-02
 1 -1 0 0 101   0  0.000000e+00  0.000000e+00  2.528790e+03  2.528790e+03 0.0 0.0 9.0
21 -1 0 0 103 101  0.000000e+00  0.000000e+00 -1.984470e+03  1.984470e+03 0.0 0.0 9.0
22  1 1 2   0   0 -2.203117e+03 -1.122021e+02  6.648904e+02  2.303995e+03 0.0 0.0 9.0
 1  1 1 2 103   0  2.203117e+03  1.122021e+02 -1.205701e+02  2.209265e+03 0.0047 0.0 9.0
#pdf 1 21 3.890446e-01 3.053031e-01 5000.0 4.721922e-02 8.927567e-02
</event>
<event>
4 7 1.0 5000.0 7.905138e-03 7.739137e-02
 1 -1 0 0 101   0  0.000000e+00  0.000000e+00  2.174806e+03  2.174806e+03 0.0 0.0 9.0
21 -1 0 0 103 101  0.000000e+00  0.000000e+00 -2.822761e+03  2.822761e+03 0.0 0.0 9.0
 1  1 1 2 103   0 -6.902009e+02 -2.388243e+02 -2.711735e+03  2.808366e+03 0.0047 0.0 9.0
22  1 1 2   0   0  6.902009e+02  2.388243e+02  2.063780e+03  2.189201e+03 0.0 0.0 9.0
#pdf 1 21 3.345856e-01 4.342710e-01 5000.0 7.235518e-02 3.178126e-02
</event>
<event>
4 7 1.0 5000.0 7.905138e-03 7.739137e-02
 1 -1 0 0 101   0  0.000000e+00  0.000000e+00  2.249282e+03  2.249282e+03 0.0 0.0 9.0
21 -1 0 0 103 101  0.000000e+00  0.000000e+00 -2.820515e+03  2.820515e+03 0.0 0.0 9.0
22  1 1 2   0   0  3.999133e+02  2.444943e+03 -7.429028e+02  2.586422e+03 0.0 0.0 9.0
 1  1 1 2 103   0 -3.999133e+02 -2.444943e+03  1.716703e+02  2.483374e+03 0.0047 0.0 9.0
#pdf 1 21 3.460434e-01 4.339253e-01 5000.0 6.641456e-02 3.188212e-02
</event>
<event>
4 7 1.0 5000.0 7.905138e-03 7.739137e-02
21 -1 0 0 103 101  0.000000e+00  0.000000e+00  2.327224e+03  2.327224e+03 0.0 0.0 9.0
 1 -1 0 0 101   0  0.000000e+00  0.000000e+00 -2.699437e+03  2.699437e+03 0.0 0.0 9.0
22  1 1 2   0   0 -2.104198e+02 -1.588259e+03 -2.118937e+03  2.656452e+03 0.0 0.0 9.0
 1  1 1 2 103   0  2.104198e+02  1.588259e+03  1.746724e+03  2.370209e+03 0.0047 0.0 9.0
#pdf 21 1 3.580345e-01 4.152980e-01 5000.0 1.766910e-02 8.631912e-03
</event>
<event>
4 7 1.0 5000.0 7.905138e-03 7.739137e-02
 1 -1 0 0 101   0  0.000000e+00  0.000000e+00  1.729309e+03  1.729309e+03 0.0 0.0 9.0
21 -1 0 0 103 101  0.000000e+00  0.000000e+00 -3.375058e+03  3.375058e+03 0.0 0.0 9.0
22  1 1 2   0   0  2.296054e+03  6.177649e+01 -3.173244e+01  2.297104e+03 0.0 0.0 9.0
 1  1 1 2 103   0 -2.296054e+03 -6.177649e+01 -1.614016e+03  2.807263e+03 0.0047 0.0 9.0
#pdf 1 21 2.660476e-01 5.192397e-01 5000.0 1.160592e-01 1.332706e-02
</event>
<event>
4 7 1.0 5000.0 7.905138e-03 7.739137e-02
21 -1 0 0 103 101  0.000000e+00  0.000000e+00  2.134313e+03  2.134313e+03 0.0 0.0 9.0
 1 -1 0 0 101   0  0.000000e+00  0.000000e+00 -2.926582e+03  2.926582e+03 0.0 0.0 9.0
 1  1 1 2 103   0  4.607495e+02 -2.441500e+03 -1.225182e+02  2.487614e+03 0.0047 0.0 9.0
22  1 1 2   0   0 -4.607495e+02  2.441500e+03 -6.697516e+02  2.573282e+03 0.0 0.0 9.0
#pdf 21 1 3.283558e-01 4.502435e-01 5000.0 2.545334e-02 5.500000e-03
</event>
<event>
4 7 1.0 5000.0 7.905138e-03 7.739137e-02
21 -1 0 0 103 101  0.000000e+00  0.000000e+00  2.841785e+03  2.841785e+03 0.0 0.0 9.0
 1 -1 0 0 101   0  0.000000e+00  0.000000e+00 -2.195569e+03  2.195569e+03 0.0 0.0 9.0
22  1 1 2   0   0 -8.819210e+02 -4.387813e+02  2.637668e+03  2.815600e+03 0.0 0.0 9.0
 1  1 1 2 103   0  8.819210e+02  4.387813e+02 -1.991451e+03  2.221754e+03 0.0047 0.0 9.0
#pdf 21 1 4.371978e-01 3.377798e-01 5000.0 6.522405e-03 2.267200e-02
</event>
<event>
4 7 1.0 5000.0 7.905138e-03 7.739137e-02
21 -1 0 0 103 101  0.000000e+00  0.000000e+00  3.103222e+03  3.103222e+03 0.0 0.0 9.0
 1 -1 0 0 101   0  0.000000e+00  0.000000e+00 -2.118694e+03  2.118694e+03 0.0 0.0 9.0
 1  1 1 2 103   0  1.889799e+03  1.572720e+03  1.233562e+03  2.750721e+03 0.0047 0.0 9.0
22  1 1 2   0   0 -1.889799e+03 -1.572720e+03 -2.490337e+02  2.471195e+03 0.0 0.0 9.0
#pdf 21 1 4.774188e-01 3.259529e-01 5000.0 3.833840e-03 2.621245e-02
</event>
<event>
4 7 1.0 5000.0 7.905138e-03 7.739137e-02
21 -1 0 0 103 101  0.000000e+00  0.000000e+00  2.430643e+03  2.430643e+03 0.0 0.0 9.0
 1 -1 0 0 101   0  0.000000e+00  0.000000e+00 -2.781711e+03  2.781711e+03 0.0 0.0 9.0
22  1 1 2   0   0  1.796148e+03  1.854083e+03 -4.886144e+02  2.627264e+03 0.0 0.0 9.0
 1  1 1 2 103   0 -1.796148e+03 -1.854083e+03  1.375473e+02  2.585090e+03 0.0047 0.0 9.0
#pdf 21 1 3.739451e-01 4.279555e-01 5000.0 1.451974e-02 7.341158e-03
</event>
<event>
4 7 1.0 5000.0 7.905138e-03 7.739137e-02
21 -1 0 0 103 101  0.000000e+00  0.000000e+00  2.129773e+03  2.129773e+03 0.0 0.0 9.0
 1 -1 0 0 101   0  0.000000e+00  0.000000e+00 -2.970569e+03  2.970569e+03 0.0 0.0 9.0
 1  1 1 2 103   0  5.294844e+02  2.193845e+03 -1.546356e+03  2.735786e+03 0.0047 0.0 9.0
22  1 1 2   0   0 -5.294844e+02 -2.193845e+03  7.055593e+02  2.364556e+03 0.0 0.0 9.0
#pdf 21 1 3.276573e-01 4.570107e-01 5000.0 2.567174e-02 5.032021e-03
</event>
<event>
4 7 1.0 5000.0 7.905138e-03 7.739137e-02
 1 -1 0 0 101   0  0.000000e+00  0.000000e+00  2.011057e+03  2.011057e+03 0.0 0.0 9.0
21 -1 0 0 103 101  0.000000e+00  0.000000e+00 -2.165758e+03  2.165758e+03 0.0 0.0 9.0
22  1 1 2   0   0  7.813892e+02 -2.184160e+02  1.846777e+03  2.017142e+03 0.0 0.0 9.0
 1  1 1 2 103   0 -7.813892e+02  2.184160e+02 -2.001479e+03  2.159674e+03 0.0047 0.0 9.0
#pdf 1 21 3.093934e-01 3.331936e-01 5000.0 8.675852e-02 7.310253e-02
</event>
<event>
4 7 1.0 5000.0 7.905138e-03 7.739137e-02
21 -1 0 0 103 101  0.000000e+00  0.000000e+00  2.565296e+03  2.565296e+03 0.0 0.0 9.0
 1 -1 0 0 101   0  0.000000e+00  0.000000e+00 -2.816525e+03  2.816525e+03 0.0 0.0 9.0
22  1 1 2   0   0  7.875814e+02 -2.528293e+03  3.360463e+02  2.669359e+03 0.0 0.0 9.0
 1  1 1 2 103   0 -7.875814e+02  2.528293e+03 -5.872751e+02  2.712461e+03 0.0047 0.0 9.0
#pdf 21 1 3.946609e-01 4.333115e-01 5000.0 1.120702e-02 6.854826e-03
</event>
<event>
4 7 1.0 5000.0 7.905138e-03 7.739137e-02
 1 -1 0 0 101   0  0.000000e+00  0.000000e+00  3.596493e+03  3.596493e+03 0.0 0.0 9.0
21 -1 0 0 103 101  0.000000e+00  0.000000e+00 -1.754032e+03  1.754032e+03 0.0 0.0 9.0
 1  1 1 2 103   0  1.349338e+03 -2.026931e+03  2.653230e+02  2.449400e+03 0.0047 0.0 9.0
22  1 1 2   0   0 -1.349338e+03  2.026931e+03  1.577138e+03  2.901125e+03 0.0 0.0 9.0
#pdf 1 21 5.533066e-01 2.698511e-01 5000.0 8.894098e-03 1.132461e-01
</event>
<event>
4 7 1.0 5000.0 7.905138e-03 7.739137e-02
21 -1 0 0 103 101  0.000000e+00  0.000000e+00  1.593807e+03  1.593807e+03 0.0 0.0 9.0
 1 -1 0 0 101   0  0.000000e+00  0.000000e+00 -4.010548e+03  4.010548e+03 0.0 0.0 9.0
 1  1 1 2 103   0 -1.380740e+03  6.494344e+02  1.025941e+03  1.838685e+03 0.0047 0.0 9.0
22  1 1 2   0   0  1.380740e+03 -6.494344e+02 -3.442683e+03  3.765670e+03 0.0 0.0 9.0
#pdf 21 1 2.452011e-01 6.170074e-01 5000.0 7.077476e-02 4.868905e-04
</event>
<event>
4 7 1.0 5000.0 7.905138e-03 7.739137e-02
 1 -1 0 0 101   0  0.000000e+00  0.000000e+00  1.501661e+03  1.501661e+03 0.0 0.0 9.0
21 -1 0 0 103 101  0.000000e+00  0.000000e+00 -4.063770e+03  4.063770e+03 0.0 0.0 9.0
 1  1 1 2 103   0 -1.006972e+03 -2.072780e+03 -2.785644e+02  2.321208e+03 0.0047 0.0 9.0
22  1 1 2   0   0  1.006972e+03  2.072780e+03 -2.283545e+03  3.244223e+03 0.0 0.0 9.0
#pdf 1 21 2.310247e-01 6.251954e-01 5000.0 1.442641e-01 3.308128e-03
</event>
<event>
4 7 1.0 5000.0 7.905138e-03 7.739137e-02
 1 -1 0 0 101   0  0.000000e+00  0.000000e+00  2.739095e+03  2.739095e+03 0.0 0.0 9.0
21 -1 0 0 103 101  0.000000e+00  0.000000e+00 -2.233759e+03  2.233759e+03 0.0 0.0 9.0
22  1 1 2   0   0  1.907399e+03  7.131881e+02  1.664135e+03  2.629859e+03 0.0 0.0 9.0
 1  1 1 2 103   0 -1.907399e+03 -7.131881e+02 -1.158799e+03  2.342995e+03 0.0047 0.0 9.0
#pdf 1 21 4.213992e-01 3.436552e-01 5000.0 3.571469e-02 6.762297e-02
</event>
<event>
4 7 1.0 5000.0 7.905138e-03 7.739137e-02
 1 -1 0 0 101   0  0.000000e+00  0.000000e+00  3.139619e+03  3.139619e+03 0.0 0.0 9.0
21 -1 0 0 103 101  0.000000e+00  0.000000e+00 -1.994440e+03  1.994440e+03 0.0 0.0 9.0
22  1 1 2   0   0  1.960466e+03 -7.554231e+02 -8.218401e+02  2.255995e+03 0.0 0.0 9.0
 1  1 1 2 103   0 -1.960466e+03  7.554231e+02  1.967019e+03  2.878064e+03 0.0047 0.0 9.0
#pdf 1 21 4.830183e-01 3.068369e-01 5000.0 1.973243e-02 8.832663e-02
</event>
<event>
4 7 1.0 5000.0 7.905138e-03 7.739137e-02
21 -1 0 0 103 101  0.000000e+00  0.000000e+00  3.747652e+03  3.747652e+03 0.0 0.0 9.0
 1 -1 0 0 101   0  0.000000e+00  0.000000e+00 -1.347327e+03  1.347327e+03 0.0 0.0 9.0
 1  1 1 2 103   0  1.981124e+03 -8.498692e+02  1.919127e+03  2.886205e+03 0.0047 0.0 9.0
22  1 1 2   0   0 -1.981124e+03  8.498692e+02  4.811983e+02  2.208774e+03 0.0 0.0 9.0
#pdf 21 1 5.765619e-01 2.072810e-01 5000.0 9.265218e-04 1.144039e-01
</event>
<event>
4 7 1.0 5000.0 7.905138e-03 7.739137e-02
 1 -1 0 0 101   0  0.000000e+00  0.000000e+00  2.030435e+03  2.030435e+03 0.0 0.0 9.0
21 -1 0 0 103 101  0.000000e+00  0.000000e+00 -2.851563e+03  2.851563e+03 0.0 0.0 9.0
22  1 1 2   0   0  2.250759e+03 -8.275425e+02 -6.113466e+02  2.474770e+03 0.0 0.0 9.0
 1  1 1 2 103   0 -2.250759e+03  8.275425e+02 -2.097809e+02  2.407228e+03 0.0047 0.0 9.0
#pdf 1 21 3.123747e-01 4.387020e-01 5000.0 8.495335e-02 3.050718e-02
</event>
<event>
4 7 1.0 5000.0 7.905138e-03 7.739137e-02
21 -1 0 0 103 101  0.000000e+00  0.000000e+00  3.108297e+03  3.108297e+03 0.0 0.0 9.0
 1 -1 0 0 101   0  0.000000e+00  0.000000e+00 -1.998747e+03  1.998747e+03 0.0 0.0 9.0
22  1 1 2   0   0 -5.714099e+02  1.958901e+03  2.021198e+03  2.872115e+03 0.0 0.0 9.0
 1  1 1 2 103   0  5.714099e+02 -1.958901e+03 -9.116483e+02  2.234928e+03 0.0047 0.0 9.0
#pdf 21 1 4.781995e-01 3.074995e-01 5000.0 3.793648e-03 3.289317e-02
</event>
<event>
4 7 1.0 5000.0 7.905138e-03 7.739137e-02
21 -1 0 0 103 101  0.000000e+00  0.000000e+00  2.208682e+03  2.208682e+03 0.0 0.0 9.0
 1 -1 0 0 101   0  0.000000e+00  0.000000e+00 -2.823260e+03  2.823260e+03 0.0 0.0 9.0
22  1 1 2   0   0  1.665245e+03 -1.797944e+03 -7.905343e+02  2.574993e+03 0.0 0.0 9.0
 1  1 1 2 103   0 -1.665245e+03  1.797944e+03  1.759564e+02  2.456950e+03 0.0047 0.0 9.0
#pdf 21 1 3.397973e-01 4.343477e-01 5000.0 2.211774e-02 6.764746e-03
</event>
<event>
4 7 1.0 5000.0 7.905138e-03 7.739137e-02
 1 -1 0 0 101   0  0.000000e+00  0.000000e+00  2.474896e+03  2.474896e+03 0.0 0.0 9.0
21 -1 0 0 103 101  0.000000e+00  0.000000e+00 -2.502401e+03  2.502401e+03 0.0 0.0 9.0
22  1 1 2   0   0  2.045128e+03  7.765025e+02 -1.200227e+03  2.495205e+03 0.0 0.0 9.0
 1  1 1 2 103   0 -2.045128e+03 -7.765025e+02  1.172722e+03  2.482092e+03 0.0047 0.0 9.0
#pdf 1 21 3.807533e-01 3.849847e-01 5000.0 5.056218e-02 4.883529e-02
</event>
<event>
4 7 1.0 5000.0 7.905138e-03 7.739137e-02
 1 -1 0 0 101   0  0.000000e+00  0.000000e+00  2.778440e+03  2.778440e+03 0.0 0.0 9.0
21 -1 0 0 103 101  0.000000e+00  0.000000e+00 -2.229230e+03  2.229230e+03 0.0 0.0 9.0
 1  1 1 2 103   0 -1.928905e+03 -1.268345e+03  1.209983e+03  2.606421e+03 0.0047 0.0 9.0
22  1 1 2   0   0  1.928905e+03  1.268345e+03 -6.607728e+02  2.401248e+03 0.0 0.0 9.0
#pdf 1 21 4.274523e-01 3.429584e-01 5000.0 3.381793e-02 6.797842e-02
</event>
<event>
4 7 1.0 5000.0 7.905138e-03 7.739137e-02
21 -1 0 0 103 101  0.000000e+00  0.000000e+00  2.004980e+03  2.004980e+03 0.0 0.0 9.0
 1 -1 0 0 101   0  0.000000e+00  0.000000e+00 -2.812891e+03  2.812891e+03 0.0 0.0 9.0
 1  1 1 2 103   0 -5.966370e+02 -1.647271e+03 -2.030203e+03  2.681642e+03 0.0047 0.0 9.0
22  1 1 2   0   0  5.966370e+02  1.647271e+03  1.222292e+03  2.136230e+03 0.0 0.0 9.0
#pdf 21 1 3.084585e-01 4.327525e-01 5000.0 3.250785e-02 6.903902e-03
</event>
<event>
4 7 1.0 5000.0 7.905138e-03 7.739137e-02
21 -1 0 0 103 101  0.000000e+00  0.000000e+00  3.626202e+03  3.626202e+03 0.0 0.0 9.0
 1 -1 0 0 101   0  0.000000e+00  0.000000e+00 -1.201590e+03  1.201590e+03 0.0 0.0 9.0
22  1 1 2   0   0 -4.846083e+02  1.047177e+03  3.223867e+03  3.424141e+03 0.0 0.0 9.0
 1  1 1 2 103   0  4.846083e+02 -1.047177e+03 -7.992553e+02  1.403650e+03 0.0047 0.0 9.0
#pdf 21 1 5.578772e-01 1.848600e-01 5000.0 1.231464e-03 1.537600e-01
</event>
<event>
4 7 1.0 5000.0 7.905138e-03 7.739137e-02
 1 -1 0 0 101   0  0.000000e+00  0.000000e+00  1.275586e+03  1.275586e+03 0.0 0.0 9.0
21 -1 0 0 103 101  0.000000e+00  0.000000e+00 -4.897204e+03  4.897204e+03 0.0 0.0 9.0
 1  1 1 2 103   0  9.695730e+02  2.001760e+03 -4.030051e+02  2.260427e+03 0.0047 0.0 9.0
22  1 1 2   0   0 -9.695730e+02 -2.001760e+03 -3.218613e+03  3.912363e+03 0.0 0.0 9.0
#pdf 1 21 1.962440e-01 7.534160e-01 5000.0 1.766421e-01 2.817165e-04
</event>
<event>
4 7 1.0 5000.0 7.905138e-03 7.739137e-02
21 -1 0 0 103 101  0.000000e+00  0.000000e+00  3.858693e+03  3.858693e+03 0.0 0.0 9.0
 1 -1 0 0 101   0  0.000000e+00  0.000000e+00 -1.601100e+03  1.601100e+03 0.0 0.0 9.0
22  1 1 2   0   0  8.962743e+02 -6.826430e+02  3.562158e+03  3.736078e+03 0.0 0.0 9.0
 1  1 1 2 103   0 -8.962743e+02  6.826430e+02 -1.304564e+03  1.723716e+03 0.0047 0.0 9.0
#pdf 21 1 5.936451e-01 2.463231e-01 5000.0 7.099016e-04 6.979244e-02
</event>
<event>
4 7 1.0 5000.0 7.905138e-03 7.739137e-02
 1 -1 0 0 101   0  0.000000e+00  0.000000e+00  3.691018e+03  3.691018e+03 0.0 0.0 9.0
21 -1 0 0 103 101  0.000000e+00  0.000000e+00 -2.148352e+03  2.148352e+03 0.0 0.0 9.0
22  1 1 2   0   0  2.814907e+03 -7.605389e+01  7.597825e+02  2.916634e+03 0.0 0.0 9.0
 1  1 1 2 103   0 -2.814907e+03  7.605389e+01  7.828835e+02  2.922737e+03 0.0047 0.0 9.0
#pdf 1 21 5.678490e-01 3.305158e-01 5000.0 7.401884e-03 7.455632e-02
</event>
<event>
4 7 1.0 5000.0 7.905138e-03 7.739137e-02
21 -1 0 0 103 101  0.000000e+00  0.000000e+00  1.788810e+03  1.788810e+03 0.0 0.0 9.0
 1 -1 0 0 101   0  0.000000e+00  0.000000e+00 -3.401192e+03  3.401192e+03 0.0 0.0 9.0
22  1 1 2   0   0  4.497424e+02 -2.036853e+03  5.787934e+02  2.164727e+03 0.0 0.0 9.0
 1  1 1 2 103   0 -4.497424e+02  2.036853e+03 -2.191176e+03  3.025275e+03 0.0047 0.0 9.0
#pdf 21 1 2.752015e-01 5.232603e-01 5000.0 4.882273e-02 2.035680e-03
</event>
<event>
4 7 1.0 5000.0 7.905138e-03 7.739137e-02
21 -1 0 0 103 101  0.000000e+00  0.000000e+00  2.993512e+03  2.993512e+03 0.0 0.0 9.0
 1 -1 0 0 101   0  0.000000e+00  0.000000e+00 -2.027569e+03  2.027569e+03 0.0 0.0 9.0
 1  1 1 2 103   0  1.476022e+03  1.862841e+03  1.143958e+03  2.637699e+03 0.0047 0.0 9.0
22  1 1 2   0   0 -1.476022e+03 -1.862841e+03 -1.780143e+02  2.383382e+03 0.0 0.0 9.0
#pdf 21 1 4.605403e-01 3.119337e-01 5000.0 4.800837e-03 3.114183e-02
</event>
<event>
4 7 1.0 5000.0 7.905138e-03 7.739137e-02
 1 -1 0 0 101   0  0.000000e+00  0.000000e+00  4.196411e+03  4.196411e+03 0.0 0.0 9.0
21 -1 0 0 103 101  0.000000e+00  0.000000e+00 -1.479789e+03  1.479789e+03 0.0 0.0 9.0
 1  1 1 2 103   0  1.359101e+03  3.826665e+02  3.696879e+03  3.957336e+03 0.0047 0.0 9.0
22  1 1 2   0   0 -1.359101e+03 -3.826665e+02 -9.802571e+02  1.718864e+03 0.0 0.0 9.0
#pdf 1 21 6.456017e-01 2.276598e-01 5000.0 2.396488e-03 1.471976e-01
</event>
<event>
4 7 1.0 5000.0 7.905138e-03 7.739137e-02
 1 -1 0 0 101   0  0.000000e+00  0.000000e+00  2.943517e+03  2.943517e+03 0.0 0.0 9.0
21 -1 0 0 103 101  0.000000e+00  0.000000e+00 -2.574993e+03  2.574993e+03 0.0 0.0 9.0
22  1 1 2   0   0  6.126610e+02  2.654976e+03 -2.106840e+02  2.732881e+03 0.0 0.0 9.0
 1  1 1 2 103   0 -6.126610e+02 -2.654976e+03  5.792081e+02  2.785629e+03 0.0047 0.0 9.0
#pdf 1 21 4.528488e-01 3.961528e-01 5000.0 2.667682e-02 4.448858e-02
</event>
<event>
4 7 1.0 5000.0 7.905138e-03 7.739137e-02
 1 -1 0 0 101   0  0.000000e+00  0.000000e+00  2.771777e+03  2.771777e+03 0.0 0.0 9.0
21 -1 0 0 103 101  0.000000e+00  0.000000e+00 -2.208236e+03  2.208236e+03 0.0 0.0 9.0
 1  1 1 2 103   0  4.671506e+02  1.712919e+03 -1.452277e+03  2.293781e+03 0.0047 0.0 9.0
22  1 1 2   0   0 -4.671506e+02 -1.712919e+03  2.015818e+03  2.686232e+03 0.0 0.0 9.0
#pdf 1 21 4.264272e-01 3.397286e-01 5000.0 3.413365e-02 6.964333e-02
</event>
<event>
4 7 1.0 5000.0 7.905138e-03 7.739137e-02
 1 -1 0 0 101   0  0.000000e+00  0.000000e+00  3.227394e+03  3.227394e+03 0.0 0.0 9.0
21 -1 0 0 103 101  0.000000e+00  0.000000e+00 -1.692353e+03  1.692353e+03 0.0 0.0 9.0
 1  1 1 2 103   0 -1.338875e+03 -1.553002e+02  2.777081e+03  3.086889e+03 0.0047 0.0 9.0
22  1 1 2   0   0  1.338875e+03  1.553002e+02 -1.242040e+03  1.832858e+03 0.0 0.0 9.0
#pdf 1 21 4.965221e-01 2.603620e-01 5000.0 1.711766e-02 1.203502e-01
</event>
<event>
4 7 1.0 5000.0 7.905138e-03 7.739137e-02
 1 -1 0 0 101   0  0.000000e+00  0.000000e+00  3.926089e+03  3.926089e+03 0.0 0.0 9.0
21 -1 0 0 103 101  0.000000e+00  0.000000e+00 -1.597567e+03  1.597567e+03 0.0 0.0 9.0
 1  1 1 2 103   0 -7.825598e+02 -1.377101e+03 -9.750620e+02  1.859987e+03 0.0047 0.0 9.0
22  1 1 2   0   0  7.825598e+02  1.377101e+03  3.303583e+03  3.663669e+03 0.0 0.0 9.0
#pdf 1 21 6.040136e-01 2.457796e-01 5000.0 4.525823e-03 1.318635e-01
</event>
<event>
4 7 1.0 5000.0 7.905138e-03 7.739137e-02
21 -1 0 0 103 101  0.000000e+00  0.000000e+00  3.835376e+03  3.835376e+03 0.0 0.0 9.0
 1 -1 0 0 101   0  0.000000e+00  0.000000e+00 -1.658785e+03  1.658785e+03 0.0 0.0 9.0
22  1 1 2   0   0 -1.097321e+03 -1.228644e+03  3.168581e+03  3.571216e+03 0.0 0.0 9.0
 1  1 1 2 103   0  1.097321e+03  1.228644e+03 -9.919896e+02  1.922946e+03 0.0047 0.0 9.0
#pdf 21 1 5.900579e-01 2.551977e-01 5000.0 7.513858e-04 6.256269e-02
</event>
<event>
4 7 1.0 5000.0 7.905138e-03 7.739137e-02
 1 -1 0 0 101   0  0.000000e+00  0.000000e+00  3.457955e+03  3.457955e+03 0.0 0.0 9.0
21 -1 0 0 103 101  0.000000e+00  0.000000e+00 -1.828028e+03  1.828028e+03 0.0 0.0 9.0
 1  1 1 2 103   0  1.088899e+03 -1.609446e+03 -8.621310e+02  2.125862e+03 0.0047 0.0 9.0
22  1 1 2   0   0 -1.088899e+03  1.609446e+03  2.492058e+03  3.160122e+03 0.0 0.0 9.0
#pdf 1 21 5.319931e-01 2.812351e-01 5000.0 1.150800e-02 1.051083e-01
</event>
<event>
4 7 1.0 5000.0 7.905138e-03 7.739137e-02
21 -1 0 0 103 101  0.000000e+00  0.000000e+00  3.571387e+03  3.571387e+03 0.0 0.0 9.0
 1 -1 0 0 101   0  0.000000e+00  0.000000e+00 -1.751856e+03  1.751856e+03 0.0 0.0 9.0
 1  1 1 2 103   0 -1.161187e+03  1.235829e+03  2.866341e+03  3.330396e+03 0.0047 0.0 9.0
22  1 1 2   0   0  1.161187e+03 -1.235829e+03 -1.046809e+03  1.992847e+03 0.0 0.0 9.0
#pdf 21 1 5.494442e-01 2.695163e-01 5000.0 1.393173e-03 5.235618e-02
</event>
<event>
4 7 1.0 5000.0 7.905138e-03 7.739137e-02
 1 -1 0 0 101   0  0.000000e+00  0.000000e+00  2.738873e+03  2.738873e+03 0.0 0.0 9.0
21 -1 0 0 103 101  0.000000e+00  0.000000e+00 -2.535263e+03  2.535263e+03 0.0 0.0 9.0
 1  1 1 2 103   0 -9.511370e+02 -2.371174e+03 -5.441523e+02  2.612131e+03 0.0047 0.0 9.0
22  1 1 2   0   0  9.511370e+02  2.371174e+03  7.477624e+02  2.662006e+03 0.0 0.0 9.0
#pdf 1 21 4.213652e-01 3.900405e-01 5000.0 3.572559e-02 4.682936e-02
</event>
<event>
4 7 1.0 5000.0 7.905138e-03 7.739137e-02
 1 -1 0 0 101   0  0.000000e+00  0.000000e+00  1.994673e+03  1.994673e+03 0.0 0.0 9.0
21 -1 0 0 103 101  0.000000e+00  0.000000e+00 -3.111474e+03  3.111474e+03 0.0 0.0 9.0
 1  1 1 2 103   0  3.646203e+02 -1.853582e+03 -2.222785e+03  2.917103e+03 0.0047 0.0 9.0
22  1 1 2   0   0 -3.646203e+02  1.853582e+03  1.105983e+03  2.189044e+03 0.0 0.0 9.0
#pdf 1 21 3.068727e-01 4.786884e-01 5000.0 8.830455e-02 2.063324e-02
</event>
<event>
4 7 1.0 5000.0 7.905138e-03 7.739137e-02
 1 -1 0 0 101   0  0.000000e+00  0.000000e+00  2.614723e+03  2.614723e+03 0.0 0.0 9.0
21 -1 0 0 103 101  0.000000e+00  0.000000e+00 -2.388143e+03  2.388143e+03 0.0 0.0 9.0
 1  1 1 2 103   0 -1.407739e+02 -4.990508e+02  2.560277e+03  2.612257e+03 0.0047 0.0 9.0
22  1 1 2   0   0  1.407739e+02  4.990508e+02 -2.333697e+03  2.390609e+03 0.0 0.0 9.0
#pdf 1 21 4.022651e-01 3.674066e-01 5000.0 4.223263e-02 5.627715e-02
</event>
<event>
4 7 1.0 5000.0 7.905138e-03 7.739137e-02
 1 -1 0 0 101   0  0.000000e+00  0.000000e+00  2.726917e+03  2.726917e+03 0.0 0.0 9.0
21 -1 0 0 103 101  0.000000e+00  0.000000e+00 -2.344011e+03  2.344011e+03 0.0 0.0 9.0
22  1 1 2   0   0 -1.075815e+03  2.819803e+02  2.468423e+03  2.707398e+03 0.0 0.0 9.0
 1  1 1 2 103   0  1.075815e+03 -2.819803e+02 -2.085517e+03  2.363529e+03 0.0047 0.0 9.0
#pdf 1 21 4.195257e-01 3.606170e-01 5000.0 3.631759e-02 5.936868e-02
</event>
<event>
4 7 1.0 5000.0 7.905138e-03 7.739137e-02
21 -1 0 0 103 101  0.000000e+00  0.000000e+00  2.397075e+03  2.397075e+03 0.0 0.0 9.0
 1 -1 0 0 101   0  0.000000e+00  0.000000e+00 -2.657403e+03  2.657403e+03 0.0 0.0 9.0
 1  1 1 2 103   0  9.437423e+02  1.887913e+03 -1.515885e+03  2.598610e+03 0.0047 0.0 9.0
22  1 1 2   0   0 -9.437423e+02 -1.887913e+03  1.255557e+03  2.455868e+03 0.0 0.0 9.0
#pdf 21 1 3.687807e-01 4.088312e-01 5000.0 1.546948e-02 9.372316e-03
</event>
<event>
4 7 1.0 5000.0 7.905138e-03 7.739137e-02
21 -1 0 0 103 101  0.000000e+00  0.000000e+00  2.289467e+03  2.289467e+03 0.0 0.0 9.0
 1 -1 0 0 101   0  0.000000e+00  0.000000e+00 -2.611720e+03  2.611720e+03 0.0 0.0 9.0
22  1 1 2   0   0  1.135210e+03  9.094092e+02 -2.131024e+03  2.580115e+03 0.0 0.0 9.0
 1  1 1 2 103   0 -1.135210e+03 -9.094092e+02  1.808772e+03  2.321073e+03 0.0047 0.0 9.0
#pdf 21 1 3.522258e-01 4.018031e-01 5000.0 1.898987e-02 1.024461e-02
</event>
<event>
4 7 1.0 5000.0 7.905138e-03 7.739137e-02
 1 -1 0 0 101   0  0.000000e+00  0.000000e+00  1.503395e+03  1.503395e+03 0.0 0.0 9.0
21 -1 0 0 103 101  0.000000e+00  0.000000e+00 -4.182409e+03  4.182409e+03 0.0 0.0 9.0
22  1 1 2   0   0  2.034419e+03  6.159306e+02 -2.847667e+03  3.553511e+03 0.0 0.0 9.0
 1  1 1 2 103   0 -2.034419e+03 -6.159306e+02  1.686524e+02  2.132293e+03 0.0047 0.0 9.0
#pdf 1 21 2.312915e-01 6.434476e-01 5000.0 1.440332e-01 2.482220e-03
</event>
<event>
4 7 1.0 5000.0 7.905138e-03 7.739137e-02
21 -1 0 0 103 101  0.000000e+00  0.000000e+00  2.013749e+03  2.013749e+03 0.0 0.0 9.0
 1 -1 0 0 101   0  0.000000e+00  0.000000e+00 -2.960899e+03  2.960899e+03 0.0 0.0 9.0
 1  1 1 2 103   0 -2.449216e+02 -1.310898e+03 -2.557189e+03  2.884035e+03 0.0047 0.0 9.0
22  1 1 2   0   0  2.449216e+02  1.310898e+03  1.610039e+03  2.090614e+03 0.0 0.0 9.0
#pdf 21 1 3.098076e-01 4.555230e-01 5000.0 3.197169e-02 5.132474e-03
</event>
<event>
4 7 1.0 5000.0 7.905138e-03 7.739137e-02
21 -1 0 0 103 101  0.000000e+00  0.000000e+00  4.166446e+03  4.166446e+03 0.0 0.0 9.0
 1 -1 0 0 101   0  0.000000e+00  0.000000e+00 -1.455663e+03  1.455663e+03 0.0 0.0 9.0
 1  1 1 2 103   0  1.163335e+03  1.298388e+03 -6.301300e+02  1.853706e+03 0.0047 0.0 9.0
22  1 1 2   0   0 -1.163335e+03 -1.298388e+03  3.340913e+03  3.768403e+03 0.0 0.0 9.0
#pdf 21 1 6.409916e-01 2.239481e-01 5000.0 3.244299e-04 9.248115e-02
</event>
<event>
4 7 1.0 5000.0 7.905138e-03 7.739137e-02
 1 -1 0 0 101   0  0.000000e+00  0.000000e+00  2.911773e+03  2.911773e+03 0.0 0.0 9.0
21 -1 0 0 103 101  0.000000e+00  0.000000e+00 -2.149472e+03  2.149472e+03 0.0 0.0 9.0
 1  1 1 2 103   0  5.086176e+02  1.652513e+03 -1.447830e+03  2.255150e+03 0.0047 0.0 9.0
22  1 1 2   0   0 -5.086176e+02 -1.652513e+03  2.210130e+03  2.806095e+03 0.0 0.0 9.0
#pdf 1 21 4.479650e-01 3.306880e-01 5000.0 2.794469e-02 7.446217e-02
</event>
<event>
4 7 1.0 5000.0 7.905138e-03 7.739137e-02
 1 -1 0 0 101   0  0.000000e+00  0.000000e+00  2.833638e+03  2.833638e+03 0.0 0.0 9.0
21 -1 0 0 103 101  0.000000e+00  0.000000e+00 -1.995334e+03  1.995334e+03 0.0 0.0 9.0
 1  1 1 2 103   0  1.204276e+03 -1.992811e+03  9.087462e+02  2.499479e+03 0.0047 0.0 9.0
22  1 1 2   0   0 -1.204276e+03  1.992811e+03 -7.044268e+01  2.329493e+03 0.0 0.0 9.0
#pdf 1 21 4.359443e-01 3.069745e-01 5000.0 3.129617e-02 8.824177e-02
</event>
<event>
4 7 1.0 5000.0 7.905138e-03 7.739137e-02
 1 -1 0 0 101   0  0.000000e+00  0.000000e+00  3.966354e+03  3.966354e+03 0.0 0.0 9.0
21 -1 0 0 103 101  0.000000e+00  0.000000e+00 -1.457226e+03  1.457226e+03 0.0 0.0 9.0
22  1 1 2   0   0  2.028870e+03 -1.259103e+03  9.390941e+02  2.565843e+03 0.0 0.0 9.0
 1  1 1 2 103   0 -2.028870e+03  1.259103e+03  1.570034e+03  2.857737e+03 0.0047 0.0 9.0
#pdf 1 21 6.102083e-01 2.241886e-01 5000.0 4.137784e-03 1.502651e-01
</event>
<event>
4 7 1.0 5000.0 7.905138e-03 7.739137e-02
21 -1 0 0 103 101  0.000000e+00  0.000000e+00  2.529803e+03  2.529803e+03 0.0 0.0 9.0
 1 -1 0 0 101   0  0.000000e+00  0.000000e+00 -2.542381e+03  2.542381e+03 0.0 0.0 9.0
22  1 1 2   0   0  1.017501e+03  1.684161e+03  1.593722e+03  2.532125e+03 0.0 0.0 9.0
 1  1 1 2 103   0 -1.017501e+03 -1.684161e+03 -1.606299e+03  2.540060e+03 0.0047 0.0 9.0
#pdf 21 1 3.892005e-01 3.911355e-01 5000.0 1.200384e-02 1.171484e-02
</event>
<event>
4 7 1.0 5000.0 7.905138e-03 7.739137e-02
 1 -1 0 0 101   0  0.000000e+00  0.000000e+00  2.496570e+03  2.496570e+03 0.0 0.0 9.0
21 -1 0 0 103 101  0.000000e+00  0.000000e+00 -2.353823e+03  2.353823e+03 0.0 0.0 9.0
22  1 1 2   0   0 -1.009008e+03  2.180356e+03  3.946766e+02  2.434711e+03 0.0 0.0 9.0
 1  1 1 2 103   0  1.009008e+03 -2.180356e+03 -2.519291e+02  2.415682e+03 0.0047 0.0 9.0
#pdf 1 21 3.840878e-01 3.621266e-01 5000.0 4.919788e-02 5.867279e-02
</event>
<event>
4 7 1.0 5000.0 7.905138e-03 7.739137e-02
 1 -1 0 0 101   0  0.000000e+00  0.000000e+00  2.225328e+03  2.225328e+03 0.0 0.0 9.0
21 -1 0 0 103 101  0.000000e+00  0.000000e+00 -2.809224e+03  2.809224e+03 0.0 0.0 9.0
 1  1 1 2 103   0  1.662620e+03  1.774538e+03 -8.774122e+02  2.585177e+03 0.0047 0.0 9.0
22  1 1 2   0   0 -1.662620e+03 -1.774538e+03  2.935157e+02  2.449375e+03 0.0 0.0 9.0
#pdf 1 21 3.423581e-01 4.321884e-01 5000.0 6.828568e-02 3.239249e-02
</event>
<event>
4 7 1.0 5000.0 7.905138e-03 7.739137e-02
21 -1 0 0 103 101  0.000000e+00  0.000000e+00  1.595734e+03  1.595734e+03 0.0 0.0 9.0
 1 -1 0 0 101   0  0.000000e+00  0.000000e+00 -3.941773e+03  3.941773e+03 0.0 0.0 9.0
22  1 1 2   0   0  6.707693e+02  1.467081e+02 -3.835990e+03  3.896957e+03 0.0 0.0 9.0
 1  1 1 2 103   0 -6.707693e+02 -1.467081e+02  1.489950e+03  1.640551e+03 0.0047 0.0 9.0
#pdf 21 1 2.454975e-01 6.064267e-01 5000.0 7.050463e-02 5.790070e-04
</event>
<event>
4 7 1.0 5000.0 7.905138e-03 7.739137e-02
 1 -1 0 0 101   0  0.000000e+00  0.000000e+00  2.930306e+03  2.930306e+03 0.0 0.0 9.0
21 -1 0 0 103 101  0.000000e+00  0.000000e+00 -2.021211e+03  2.021211e+03 0.0 0.0 9.0
22  1 1 2   0   0 -1.799339e+03  4.776344e+02  2.049139e+03  2.768524e+03 0.0 0.0 9.0
 1  1 1 2 103   0  1.799339e+03 -4.776344e+02 -1.140044e+03  2.182993e+03 0.0047 0.0 9.0
#pdf 1 21 4.508163e-01 3.109555e-01 5000.0 2.720125e-02 8.580935e-02
</event>
<event>
4 7 1.0 5000.0 7.905138e-03 7.739137e-02
21 -1 0 0 103 101  0.000000e+00  0.000000e+00  1.482374e+03  1.482374e+03 0.0 0.0 9.0
 1 -1 0 0 101   0  0.000000e+00  0.000000e+00 -4.210263e+03  4.210263e+03 0.0 0.0 9.0
22  1 1 2   0   0  4.824044e+01 -1.772697e+03 -3.368779e+03  3.807027e+03 0.0 0.0 9.0
 1  1 1 2 103   0 -4.824044e+01  1.772697e+03  6.408901e+02  1.885610e+03 0.0047 0.0 9.0
#pdf 21 1 2.280575e-01 6.477328e-01 5000.0 8.776187e-02 2.882339e-04
</event>
<event>
4 7 1.0 5000.0 7.905138e-03 7.739137e-02
21 -1 0 0 103 101  0.000000e+00  0.000000e+00  2.969739e+03  2.969739e+03 0.0 0.0 9.0
 1 -1 0 0 101   0  0.000000e+00  0.000000e+00 -2.249140e+03  2.249140e+03 0.0 0.0 9.0
22  1 1 2   0   0  2.152408e+03 -1.196194e+03 -4.319012e+02  2.500056e+03 0.0 0.0 9.0
 1  1 1 2 103   0 -2.152408e+03  1.196194e+03  1.152500e+03  2.718823e+03 0.0047 0.0 9.0
#pdf 21 1 4.568829e-01 3.460215e-01 5000.0 5.040585e-03 2.049661e-02
</event>
<event>
4 7 1.0 5000.0 7.905138e-03 7.739137e-02
21 -1 0 0 103 101  0.000000e+00  0.000000e+00  2.638473e+03  2.638473e+03 0.0 0.0 9.0
 1 -1 0 0 101   0  0.000000e+00  0.000000e+00 -2.431446e+03  2.431446e+03 0.0 0.0 9.0
22  1 1 2   0   0  2.269179e+02  3.750473e+02  2.600221e+03  2.636911e+03 0.0 0.0 9.0
 1  1 1 2 103   0 -2.269179e+02 -3.750473e+02 -2.393194e+03  2.433008e+03 0.0047 0.0 9.0
#pdf 21 1 4.059190e-01 3.740686e-01 5000.0 9.725655e-03 1.449795e-02
</event>
<event>
4 7 1.0 5000.0 7.905138e-03 7.739137e-02
21 -1 0 0 103 101  0.000000e+00  0.000000e+00  2.210398e+03  2.210398e+03 0.0 0.0 9.0
 1 -1 0 0 101   0  0.000000e+00  0.000000e+00 -2.823253e+03  2.823253e+03 0.0 0.0 9.0
22  1 1 2   0   0  3.666630e+02 -9.781677e+02  1.979778e+03  2.238476e+03 0.0 0.0 9.0
 1  1 1 2 103   0 -3.666630e+02  9.781677e+02 -2.592633e+03  2.795174e+03 0.0047 0.0 9.0
#pdf 21 1 3.400612e-01 4.343466e-01 5000.0 2.204637e-02 6.764846e-03
</event>
<event>
4 7 1.0 5000.0 7.905138e-03 7.739137e-02
21 -1 0 0 103 101  0.000000e+00  0.000000e+00  2.747359e+03  2.747359e+03 0.0 0.0 9.0
 1 -1 0 0 101   0  0.000000e+00  0.000000e+00 -2.276706e+03  2.276706e+03 0.0 0.0 9.0
22  1 1 2   0   0 -5.206891e+02  3.904551e+02 -2.190160e+03  2.284813e+03 0.0 0.0 9.0
 1  1 1 2 103   0  5.206891e+02 -3.904551e+02  2.660813e+03  2.739251e+03 0.0047 0.0 9.0
#pdf 21 1 4.226706e-01 3.502624e-01 5000.0 7.857555e-03 1.945670e-02
</event>
<event>
4 7 1.0 5000.0 7.905138e-03 7.739137e-02
 1 -1 0 0 101   0  0.000000e+00  0.000000e+00  2.063749e+03  2.063749e+03 0.0 0.0 9.0
21 -1 0 0 103 101  0.000000e+00  0.000000e+00 -2.657897e+03  2.657897e+03 0.0 0.0 9.0
 1  1 1 2 103   0  1.732170e+03  1.526750e+03  9.830723e+01  2.311070e+03 0.0047 0.0 9.0
22  1 1 2   0   0 -1.732170e+03 -1.526750e+03 -6.924554e+02  2.410576e+03 0.0 0.0 9.0
#pdf 1 21 3.174998e-01 4.089072e-01 5000.0 8.191589e-02 3.987790e-02
</event>
<event>
4 7 1.0 5000.0 7.905138e-03 7.739137e-02
21 -1 0 0 103 101  0.000000e+00  0.000000e+00  3.224627e+03  3.224627e+03 0.0 0.0 9.0
 1 -1 0 0 101   0  0.000000e+00  0.000000e+00 -1.721356e+03  1.721356e+03 0.0 0.0 9.0
 1  1 1 2 103   0 -2.760710e+02 -1.234135e+03 -1.334894e+03  1.838817e+03 0.0047 0.0 9.0
22  1 1 2   0   0  2.760710e+02  1.234135e+03  2.838165e+03  3.107167e+03 0.0 0.0 9.0
#pdf 21 1 4.960965e-01 2.648240e-01 5000.0 2.974337e-03 5.547590e-02
</event>
<event>
4 7 1.0 5000.0 7.905138e-03 7.739137e-02
 1 -1 0 0 101   0  0.000000e+00  0.000000e+00  2.735353e+03  2.735353e+03 0.0 0.0 9.0
21 -1 0 0 103 101  0.000000e+00  0.000000e+00 -2.279374e+03  2.279374e+03 0.0 0.0 9.0
22  1 1 2   0   0  3.273142e+02  9.265485e+02 -2.077047e+03  2.297771e+03 0.0 0.0 9.0
 1  1 1 2 103   0 -3.273142e+02 -9.265485e+02  2.533026e+03  2.716955e+03 0.0047 0.0 9.0
#pdf 1 21 4.208235e-01 3.506729e-01 5000.0 3.589916e-02 6.411432e-02
</event>
<event>
4 7 1.0 5000.0 7.905138e-03 7.739137e-02
 1 -1 0 0 101   0  0.000000e+00  0.000000e+00  2.928184e+03  2.928184e+03 0.0 0.0 9.0
21 -1 0 0 103 101  0.000000e+00  0.000000e+00 -2.131824e+03  2.131824e+03 0.0 0.0 9.0
22  1 1 2   0   0  1.722349e+03  1.539403e+03 -5.657372e+02  2.378299e+03 0.0 0.0 9.0
 1  1 1 2 103   0 -1.722349e+03 -1.539403e+03  1.362097e+03  2.681708e+03 0.0047 0.0 9.0
#pdf 1 21 4.504898e-01 3.279729e-01 5000.0 2.728592e-02 7.595626e-02
</event>
<event>
4 7 1.0 5000.0 7.905138e-03 7.739137e-02
21 -1 0 0 103 101  0.000000e+00  0.000000e+00  1.543023e+03  1.543023e+03 0.0 0.0 9.0
 1 -1 0 0 101   0  0.000000e+00  0.000000e+00 -4.073241e+03  4.073241e+03 0.0 0.0 9.0
 1  1 1 2 103   0 -1.630324e+03 -1.448647e+03  1.197454e+02  2.184233e+03 0.0047 0.0 9.0
22  1 1 2   0   0  1.630324e+03  1.448647e+03 -2.649963e+03  3.432031e+03 0.0 0.0 9.0
#pdf 21 1 2.373882e-01 6.266525e-01 5000.0 7.812096e-02 4.145343e-04
</event>
<event>
4 7 1.0 5000.0 7.905138e-03 7.739137e-02
21 -1 0 0 103 101  0.000000e+00  0.000000e+00  3.643897e+03  3.643897e+03 0.0 0.0 9.0
 1 -1 0 0 101   0  0.000000e+00  0.000000e+00 -1.705007e+03  1.705007e+03 0.0 0.0 9.0
22  1 1 2   0   0 -1.172411e+03 -1.331447e+03  2.848088e+03  3.355429e+03 0.0 0.0 9.0
 1  1 1 2 103   0  1.172411e+03  1.331447e+03 -9.091976e+02  1.993475e+03 0.0047 0.0 9.0
#pdf 21 1 5.605995e-01 2.623087e-01 5000.0 1.182664e-03 5.723362e-02
</event>
<event>
4 7 1.0 5000.0 7.905138e-03 7.739137e-02
21 -1 0 0 103 101  0.000000e+00  0.000000e+00  1.920946e+03  1.920946e+03 0.0 0.0 9.0
 1 -1 0 0 101   0  0.000000e+00  0.000000e+00 -3.141938e+03  3.141938e+03 0.0 0.0 9.0
 1  1 1 2 103   0 -1.597051e+03 -8.295165e+02 -2.333729e+03  2.947026e+03 0.0047 0.0 9.0
22  1 1 2   0   0  1.597051e+03  8.295165e+02  1.112738e+03  2.115858e+03 0.0 0.0 9.0
#pdf 21 1 2.955302e-01 4.833751e-01 5000.0 3.808367e-02 3.536573e-03
</event>
<event>
4 7 1.0 5000.0 7.905138e-03 7.739137e-02
 1 -1 0 0 101   0  0.000000e+00  0.000000e+00  2.186990e+03  2.186990e+03 0.0 0.0 9.0
21 -1 0 0 103 101  0.000000e+00  0.000000e+00 -2.874396e+03  2.874396e+03 0.0 0.0 9.0
 1  1 1 2 103   0 -2.136174e+03  6.288875e+02  8.192607e+02  2.372747e+03 0.0047 0.0 9.0
22  1 1 2   0   0  2.136174e+03 -6.288875e+02 -1.506667e+03  2.688640e+03 0.0 0.0 9.0
#pdf 1 21 3.364600e-01 4.422148e-01 5000.0 7.135794e-02 2.951827e-02
</event>
<event>
4 7 1.0 5000.0 7.905138e-03 7.739137e-02
21 -1 0 0 103 101  0.000000e+00  0.000000e+00  2.490088e+03  2.490088e+03 0.0 0.0 9.0
 1 -1 0 0 101   0  0.000000e+00  0.000000e+00 -2.279511e+03  2.279511e+03 0.0 0.0 9.0
22  1 1 2   0   0  1.430880e+03  5.138259e+02 -1.730826e+03  2.303735e+03 0.0 0.0 9.0
 1  1 1 2 103   0 -1.430880e+03 -5.138259e+02  1.941403e+03  2.465863e+03 0.0047 0.0 9.0
#pdf 21 1 3.830904e-01 3.506939e-01 5000.0 1.296452e-02 1.935337e-02
</event>
<event>
4 7 1.0 5000.0 7.905138e-03 7.739137e-02
21 -1 0 0 103 101  0.000000e+00  0.000000e+00  1.928625e+03  1.928625e+03 0.0 0.0 9.0
 1 -1 0 0 101   0  0.000000e+00  0.000000e+00 -3.028269e+03  3.028269e+03 0.0 0.0 9.0
 1  1 1 2 103   0  1.302987e+03  7.504500e+02 -2.490110e+03  2.908883e+03 0.0047 0.0 9.0
22  1 1 2   0   0 -1.302987e+03 -7.504500e+02  1.390466e+03  2.048011e+03 0.0 0.0 9.0
#pdf 21 1 2.967115e-01 4.658875e-01 5000.0 3.753108e-02 4.472632e-03
</event>
<event>
4 7 1.0 5000.0 7.905138e-03 7.739137e-02
 1 -1 0 0 101   0  0.000000e+00  0.000000e+00  3.063133e+03  3.063133e+03 0.0 0.0 9.0
21 -1 0 0 103 101  0.000000e+00  0.000000e+00 -2.125965e+03  2.125965e+03 0.0 0.0 9.0
22  1 1 2   0   0  2.299270e+03  1.030283e+03  8.803036e+02  2.668907e+03 0.0 0.0 9.0
 1  1 1 2 103   0 -2.299270e+03 -1.030283e+03  5.686406e+01  2.520191e+03 0.0047 0.0 9.0
#pdf 1 21 4.712512e-01 3.270715e-01 5000.0 2.225400e-02 7.645697e-02
</event>
<event>
4 7 1.0 5000.0 7.905138e-03 7.739137e-02
 2 -1 0 0 101   0  0.000000e+00  0.000000e+00  2.557538e+03  2.557538e+03 0.0 0.0 9.0
21 -1 0 0 103 101  0.000000e+00  0.000000e+00 -2.456710e+03  2.456710e+03 0.0 0.0 9.0
 2  1 1 2 103   0 -1.375177e+03  1.837182e+02  2.138481e+03  2.549111e+03 0.0022 0.0 9.0
22  1 1 2   0   0  1.375177e+03 -1.837182e+02 -2.037653e+03  2.465136e+03 0.0 0.0 9.0
#pdf 2 21 3.934673e-01 3.779553e-01 5000.0 1.484974e-01 1.631398e-01
</event>
<event>
4 7 1.0 5000.0 7.905138e-03 7.739137e-02
21 -1 0 0 103 101  0.000000e+00  0.000000e+00  1.573562e+03  1.573562e+03 0.0 0.0 9.0
 2 -1 0 0 101   0  0.000000e+00  0.000000e+00 -3.817045e+03  3.817045e+03 0.0 0.0 9.0
 2  1 1 2 103   0  6.183184e+02  1.971898e+03 -2.570627e+03  3.298306e+03 0.0022 0.0 9.0
22  1 1 2   0   0 -6.183184e+02 -1.971898e+03  3.271448e+02  2.092301e+03 0.0 0.0 9.0
#pdf 21 2 2.420865e-01 5.872377e-01 5000.0 7.365597e-02 7.854721e-04
</event>
<event>
4 7 1.0 5000.0 7.905138e-03 7.739137e-02
 2 -1 0 0 101   0  0.000000e+00  0.000000e+00  2.521609e+03  2.521609e+03 0.0 0.0 9.0
21 -1 0 0 103 101  0.000000e+00  0.000000e+00 -2.158212e+03  2.158212e+03 0.0 0.0 9.0
22  1 1 2   0   0  2.009590e+03  1.045940e+03  7.399129e+02  2.383257e+03 0.0 0.0 9.0
 2  1 1 2 103   0 -2.009590e+03 -1.045940e+03 -3.765153e+02  2.296564e+03 0.0022 0.0 9.0
#pdf 2 21 3.879399e-01 3.320325e-01 5000.0 1.536169e-01 2.114213e-01
</event>
<event>
4 7 1.0 5000.0 7.905138e-03 7.739137e-02
 2 -1 0 0 101   0  0.000000e+00  0.000000e+00  1.512619e+03  1.512619e+03 0.0 0.0 9.0
21 -1 0 0 103 101  0.000000e+00  0.000000e+00 -4.121132e+03  4.121132e+03 0.0 0.0 9.0
22  1 1 2   0   0 -3.027769e+02  1.134237e+03  1.181813e+03  1.665788e+03 0.0 0.0 9.0
 2  1 1 2 103   0  3.027769e+02 -1.134237e+03 -3.790326e+03  3.967964e+03 0.0022 0.0 9.0
#pdf 2 21 2.327107e-01 6.340203e-01 5000.0 3.370127e-01 2.013349e-02
</event>
<event>
4 7 1.0 5000.0 7.905138e-03 7.739137e-02
 2 -1 0 0 101   0  0.000000e+00  0.000000e+00  2.329953e+03  2.329953e+03 0.0 0.0 9.0
21 -1 0 0 103 101  0.000000e+00  0.000000e+00 -2.578593e+03  2.578593e+03 0.0 0.0 9.0
 2  1 1 2 103   0  1.058430e+03  1.546130e+03  1.457967e+03  2.374123e+03 0.0022 0.0 9.0
22  1 1 2   0   0 -1.058430e+03 -1.546130e+03 -1.706607e+03  2.534423e+03 0.0 0.0 9.0
#pdf 2 21 3.584543e-01 3.967066e-01 5000.0 1.827521e-01 1.455435e-01
</event>
<event>
4 7 1.0 5000.0 7.905138e-03 7.739137e-02
 2 -1 0 0 101   0  0.000000e+00  0.000000e+00  2.256163e+03  2.256163e+03 0.0 0.0 9.0
21 -1 0 0 103 101  0.000000e+00  0.000000e+00 -2.749888e+03  2.749888e+03 0.0 0.0 9.0
22  1 1 2   0   0 -1.810189e+03  1.296966e+03 -1.368256e+03  2.613623e+03 0.0 0.0 9.0
 2  1 1 2 103   0  1.810189e+03 -1.296966e+03  8.745316e+02  2.392427e+03 0.0022 0.0 9.0
#pdf 2 21 3.471020e-01 4.230596e-01 5000.0 1.947828e-01 1.228850e-01
</event>
<event>
4 7 1.0 5000.0 7.905138e-03 7.739137e-02
 2 -1 0 0 101   0  0.000000e+00  0.000000e+00  2.167438e+03  2.167438e+03 0.0 0.0 9.0
21 -1 0 0 103 101  0.000000e+00  0.000000e+00 -2.963050e+03  2.963050e+03 0.0 0.0 9.0
 2  1 1 2 103   0  1.842238e+03 -1.051859e+03 -1.801137e+03  2.782866e+03 0.0022 0.0 9.0
22  1 1 2   0   0 -1.842238e+03  1.051859e+03  1.005525e+03  2.347622e+03 0.0 0.0 9.0
#pdf 2 21 3.334520e-01 4.558538e-01 5000.0 2.098219e-01 9.811050e-02
</event>
<event>
4 7 1.0 5000.0 7.905138e-03 7.739137e-02
 2 -1 0 0 101   0  0.000000e+00  0.000000e+00  1.996057e+03  1.996057e+03 0.0 0.0 9.0
21 -1 0 0 103 101  0.000000e+00  0.000000e+00 -3.192582e+03  3.192582e+03 0.0 0.0 9.0
22  1 1 2   0   0  5.316355e+02 -1.568205e+03  1.359948e+03  2.142747e+03 0.0 0.0 9.0
 2  1 1 2 103   0 -5.316355e+02  1.568205e+03 -2.556474e+03  3.045892e+03 0.0022 0.0 9.0
#pdf 2 21 3.070857e-01 4.911665e-01 5000.0 2.405672e-01 7.548516e-02
</event>
<event>
4 7 1.0 5000.0 7.905138e-03 7.739137e-02
21 -1 0 0 103 101  0.000000e+00  0.000000e+00  3.368077e+03  3.368077e+03 0.0 0.0 9.0
 2 -1 0 0 101   0  0.000000e+00  0.000000e+00 -1.897975e+03  1.897975e+03 0.0 0.0 9.0
 2  1 1 2 103   0  2.366597e+03  3.544785e+02 -1.148817e+02  2.395753e+03 0.0022 0.0 9.0
22  1 1 2   0   0 -2.366597e+03 -3.544785e+02  1.584984e+03  2.870298e+03 0.0 0.0 9.0
#pdf 21 2 5.181657e-01 2.919961e-01 5000.0 2.187720e-03 3.976525e-02
</event>
<event>
4 7 1.0 5000.0 7.905138e-03 7.739137e-02
21 -1 0 0 103 101  0.000000e+00  0.000000e+00  1.735722e+03  1.735722e+03 0.0 0.0 9.0
 2 -1 0 0 101   0  0.000000e+00  0.000000e+00 -3.640418e+03  3.640418e+03 0.0 0.0 9.0
 2  1 1 2 103   0 -1.254420e+03  1.561787e+03 -2.576232e+03  3.263391e+03 0.0022 0.0 9.0
22  1 1 2   0   0  1.254420e+03 -1.561787e+03  6.715363e+02  2.112749e+03 0.0 0.0 9.0
#pdf 21 2 2.670342e-01 5.600642e-01 5000.0 5.398193e-02 1.192163e-03
</event>
<event>
4 7 1.0 5000.0 7.905138e-03 7.739137e-02
 2 -1 0 0 101   0  0.000000e+00  0.000000e+00  1.945971e+03  1.945971e+03 0.0 0.0 9.0
21 -1 0 0 103 101  0.000000e+00  0.000000e+00 -3.015508e+03  3.015508e+03 0.0 0.0 9.0
 2  1 1 2 103   0  4.833395e+02  2.279908e+03  1.418164e+02  2.334890e+03 0.0022 0.0 9.0
22  1 1 2   0   0 -4.833395e+02 -2.279908e+03 -1.211354e+03  2.626590e+03 0.0 0.0 9.0
#pdf 2 21 2.993802e-01 4.639244e-01 5000.0 2.499593e-01 9.257329e-02
</event>
<event>
4 7 1.0 5000.0 7.905138e-03 7.739137e-02
 2 -1 0 0 101   0  0.000000e+00  0.000000e+00  2.367365e+03  2.367365e+03 0.0 0.0 9.0
21 -1 0 0 103 101  0.000000e+00  0.000000e+00 -2.690958e+03  2.690958e+03 0.0 0.0 9.0
 2  1 1 2 103   0 -9.090714e+02  2.016522e+03 -1.379903e+03  2.607087e+03 0.0022 0.0 9.0
22  1 1 2   0   0  9.090714e+02 -2.016522e+03  1.056310e+03  2.451237e+03 0.0 0.0 9.0
#pdf 2 21 3.642101e-01 4.139936e-01 5000.0 1.768216e-01 1.304037e-01
</event>
<event>
4 7 1.0 5000.0 7.905138e-03 7.739137e-02
21 -1 0 0 103 101  0.000000e+00  0.000000e+00  2.040821e+03  2.040821e+03 0.0 0.0 9.0
 2 -1 0 0 101   0  0.000000e+00  0.000000e+00 -3.011941e+03  3.011941e+03 0.0 0.0 9.0
22  1 1 2   0   0  1.614821e+03  9.504454e+02 -2.139930e+03  2.844344e+03 0.0 0.0 9.0
 2  1 1 2 103   0 -1.614821e+03 -9.504454e+02  1.168810e+03  2.208418e+03 0.0022 0.0 9.0
#pdf 21 2 3.139725e-01 4.633755e-01 5000.0 3.036516e-02 4.623683e-03
</event>
<event>
4 7 1.0 5000.0 7.905138e-03 7.739137e-02
21 -1 0 0 103 101  0.000000e+00  0.000000e+00  2.653174e+03  2.653174e+03 0.0 0.0 9.0
 2 -1 0 0 101   0  0.000000e+00  0.000000e+00 -1.850364e+03  1.850364e+03 0.0 0.0 9.0
22  1 1 2   0   0 -4.100094e+02  2.174190e+03  2.806094e+02  2.230236e+03 0.0 0.0 9.0
 2  1 1 2 103   0  4.100094e+02 -2.174190e+03  5.222012e+02  2.273302e+03 0.0022 0.0 9.0
#pdf 21 2 4.081807e-01 2.846714e-01 5000.0 9.450309e-03 4.345793e-02
</event>
<event>
4 7 1.0 5000.0 7.905138e-03 7.739137e-02
21 -1 0 0 103 101  0.000000e+00  0.000000e+00  4.537732e+03  4.537732e+03 0.0 0.0 9.0
 2 -1 0 0 101   0  0.000000e+00  0.000000e+00 -1.366502e+03  1.366502e+03 0.0 0.0 9.0
 2  1 1 2 103   0 -1.873487e+03 -1.639358e+03  1.654422e+03  2.989074e+03 0.0022 0.0 9.0
22  1 1 2   0   0  1.873487e+03  1.639358e+03  1.516808e+03  2.915160e+03 0.0 0.0 9.0
#pdf 21 2 6.981126e-01 2.102310e-01 5000.0 1.123962e-04 1.101947e-01
</event>
<event>
4 7 1.0 5000.0 7.905138e-03 7.739137e-02
21 -1 0 0 103 101  0.000000e+00  0.000000e+00  1.433602e+03  1.433602e+03 0.0 0.0 9.0
 2 -1 0 0 101   0  0.000000e+00  0.000000e+00 -4.277351e+03  4.277351e+03 0.0 0.0 9.0
22  1 1 2   0   0  6.551596e+02  7.347358e+02 -4.042022e+03  4.160170e+03 0.0 0.0 9.0
 2  1 1 2 103   0 -6.551596e+02 -7.347358e+02  1.198273e+03  1.550783e+03 0.0022 0.0 9.0
#pdf 21 2 2.205542e-01 6.580540e-01 5000.0 9.658833e-02 2.402421e-04
</event>
<event>
4 7 1.0 5000.0 7.905138e-03 7.739137e-02
 2 -1 0 0 101   0  0.000000e+00  0.000000e+00  2.521827e+03  2.521827e+03 0.0 0.0 9.0
21 -1 0 0 103 101  0.000000e+00  0.000000e+00 -2.520634e+03  2.520634e+03 0.0 0.0 9.0
22  1 1 2   0   0  1.100221e+03  1.992870e+03 -1.083186e+03  2.520974e+03 0.0 0.0 9.0
 2  1 1 2 103   0 -1.100221e+03 -1.992870e+03  1.084379e+03  2.521487e+03 0.0022 0.0 9.0
#pdf 2 21 3.879733e-01 3.877898e-01 5000.0 1.535856e-01 1.537574e-01
</event>
<event>
4 7 1.0 5000.0 7.905138e-03 7.739137e-02
 2 -1 0 0 101   0  0.000000e+00  0.000000e+00  3.494548e+03  3.494548e+03 0.0 0.0 9.0
21 -1 0 0 103 101  0.000000e+00  0.000000e+00 -1.835871e+03  1.835871e+03 0.0 0.0 9.0
22  1 1 2   0   0  1.974122e+02 -2.518977e+03  1.015569e+03  2.723159e+03 0.0 0.0 9.0
 2  1 1 2 103   0 -1.974122e+02  2.518977e+03  6.431084e+02  2.607260e+03 0.0022 0.0 9.0
#pdf 2 21 5.376228e-01 2.824416e-01 5000.0 5.165397e-02 2.711611e-01
</event>
<event>
4 7 1.0 5000.0 7.905138e-03 7.739137e-02
 2 -1 0 0 101   0  0.000000e+00  0.000000e+00  3.180125e+03  3.180125e+03 0.0 0.0 9.0
21 -1 0 0 103 101  0.000000e+00  0.000000e+00 -1.905487e+03  1.905487e+03 0.0 0.0 9.0
 2  1 1 2 103   0 -2.267737e+03  4.200288e+01  1.625571e+03  2.790498e+03 0.0022 0.0 9.0
22  1 1 2   0   0  2.267737e+03 -4.200288e+01 -3.509323e+02  2.295114e+03 0.0 0.0 9.0
#pdf 2 21 4.892501e-01 2.931518e-01 5000.0 7.660907e-02 2.576524e-01
</event>
<event>
4 7 1.0 5000.0 7.905138e-03 7.739137e-02
21 -1 0 0 103 101  0.000000e+00  0.000000e+00  1.695316e+03  1.695316e+03 0.0 0.0 9.0
 2 -1 0 0 101   0  0.000000e+00  0.000000e+00 -3.807356e+03  3.807356e+03 0.0 0.0 9.0
 2  1 1 2 103   0  1.780019e+02 -2.265494e+03 -2.286259e+03  3.223527e+03 0.0022 0.0 9.0
22  1 1 2   0   0 -1.780019e+02  2.265494e+03  1.742184e+02  2.279145e+03 0.0 0.0 9.0
#pdf 21 2 2.608178e-01 5.857471e-01 5000.0 5.830828e-02 8.039682e-04
</event>
<event>
4 7 1.0 5000.0 7.905138e-03 7.739137e-02
21 -1 0 0 103 101  0.000000e+00  0.000000e+00  1.364613e+03  1.364613e+03 0.0 0.0 9.0
 2 -1 0 0 101   0  0.000000e+00  0.000000e+00 -3.435055e+03  3.435055e+03 0.0 0.0 9.0
 2  1 1 2 103   0  1.426290e+03 -7.104255e+02  5.894997e+02  1.698976e+03 0.0022 0.0 9.0
22  1 1 2   0   0 -1.426290e+03  7.104255e+02 -2.659941e+03  3.100693e+03 0.0 0.0 9.0
#pdf 21 2 2.099405e-01 5.284700e-01 5000.0 1.106009e-01 1.890895e-03
</event>
<event>
4 7 1.0 5000.0 7.905138e-03 7.739137e-02
21 -1 0 0 103 101  0.000000e+00  0.000000e+00  3.778034e+03  3.778034e+03 0.0 0.0 9.0
 2 -1 0 0 101   0  0.000000e+00  0.000000e+00 -1.798953e+03  1.798953e+03 0.0 0.0 9.0
22  1 1 2   0   0  2.368165e+03 -1.137838e+02  2.149147e+03  3.199998e+03 0.0 0.0 9.0
 2  1 1 2 103   0 -2.368165e+03  1.137838e+02 -1.700657e+02  2.376989e+03 0.0022 0.0 9.0
#pdf 21 2 5.812360e-01 2.767620e-01 5000.0 8.621916e-04 4.789550e-02
</event>
<event>
4 7 1.0 5000.0 7.905138e-03 7.739137e-02
 2 -1 0 0 101   0  0.000000e+00  0.000000e+00  2.617640e+03  2.617640e+03 0.0 0.0 9.0
21 -1 0 0 103 101  0.000000e+00  0.000000e+00 -2.459724e+03  2.459724e+03 0.0 0.0 9.0
22  1 1 2   0   0  2.486724e+02 -5.573349e+02 -2.385202e+03  2.462042e+03 0.0 0.0 9.0
 2  1 1 2 103   0 -2.486724e+02  5.573349e+02  2.543118e+03  2.615322e+03 0.0022 0.0 9.0
#pdf 2 21 4.027138e-01 3.784191e-01 5000.0 1.401597e-01 1.626900e-01
</event>
<event>
4 7 1.0 5000.0 7.905138e-03 7.739137e-02
 2 -1 0 0 101   0  0.000000e+00  0.000000e+00  1.685919e+03  1.685919e+03 0.0 0.0 9.0
21 -1 0 0 103 101  0.000000e+00  0.000000e+00 -3.700828e+03  3.700828e+03 0.0 0.0 9.0
 2  1 1 2 103   0  9.454589e+02 -8.207154e+02  1.323169e+03  1.821605e+03 0.0022 0.0 9.0
22  1 1 2   0   0 -9.454589e+02  8.207154e+02 -3.338079e+03  3.565142e+03 0.0 0.0 9.0
#pdf 2 21 2.593721e-01 5.693582e-01 5000.0 3.011316e-01 3.885887e-02
</event>
<event>
4 7 1.0 5000.0 7.905138e-03 7.739137e-02
 2 -1 0 0 101   0  0.000000e+00  0.000000e+00  1.955523e+03  1.955523e+03 0.0 0.0 9.0
21 -1 0 0 103 101  0.000000e+00  0.000000e+00 -3.229329e+03  3.229329e+03 0.0 0.0 9.0
22  1 1 2   0   0  1.089425e+03 -1.678313e+03  9.315115e+02  2.207101e+03 0.0 0.0 9.0
 2  1 1 2 103   0 -1.089425e+03  1.678313e+03 -2.205317e+03  2.977752e+03 0.0022 0.0 9.0
#pdf 2 21 3.008497e-01 4.968199e-01 5000.0 2.481596e-01 7.223720e-02
</event>
<event>
4 7 1.0 5000.0 7.905138e-03 7.739137e-02
 2 -1 0 0 101   0  0.000000e+00  0.000000e+00  1.986567e+03  1.986567e+03 0.0 0.0 9.0
21 -1 0 0 103 101  0.000000e+00  0.000000e+00 -3.086274e+03  3.086274e+03 0.0 0.0 9.0
 2  1 1 2 103   0 -2.008599e+03  1.520112e+02  9.251942e+02  2.216655e+03 0.0022 0.0 9.0
22  1 1 2   0   0  2.008599e+03 -1.520112e+02 -2.024901e+03  2.856186e+03 0.0 0.0 9.0
#pdf 2 21 3.056257e-01 4.748114e-01 5000.0 2.423327e-01 8.545552e-02
</event>
<event>
4 7 1.0 5000.0 7.905138e-03 7.739137e-02
 2 -1 0 0 101   0  0.000000e+00  0.000000e+00  2.730832e+03  2.730832e+03 0.0 0.0 9.0
21 -1 0 0 103 101  0.000000e+00  0.000000e+00 -2.064924e+03  2.064924e+03 0.0 0.0 9.0
 2  1 1 2 103   0  1.513765e+03  1.775200e+03 -1.142537e+02  2.335782e+03 0.0022 0.0 9.0
22  1 1 2   0   0 -1.513765e+03 -1.775200e+03  7.801610e+02  2.459974e+03 0.0 0.0 9.0
#pdf 2 21 4.201280e-01 3.176807e-01 5000.0 1.252842e-01 2.279621e-01
</event>
<event>
4 7 1.0 5000.0 7.905138e-03 7.739137e-02
21 -1 0 0 103 101  0.000000e+00  0.000000e+00  2.729654e+03  2.729654e+03 0.0 0.0 9.0
 2 -1 0 0 101   0  0.000000e+00  0.000000e+00 -2.471318e+03  2.471318e+03 0.0 0.0 9.0
22  1 1 2   0   0  1.509795e+01  2.423536e+03  1.064179e+03  2.646929e+03 0.0 0.0 9.0
 2  1 1 2 103   0 -1.509795e+01 -2.423536e+03 -8.058429e+02  2.554043e+03 0.0022 0.0 9.0
#pdf 21 2 4.199468e-01 3.802027e-01 5000.0 8.135813e-03 1.344177e-02
</event>
<event>
4 7 1.0 5000.0 7.905138e-03 7.739137e-02
21 -1 0 0 103 101  0.000000e+00  0.000000e+00  2.494080e+03  2.494080e+03 0.0 0.0 9.0
 2 -1 0 0 101   0  0.000000e+00  0.000000e+00 -2.475237e+03  2.475237e+03 0.0 0.0 9.0
 2  1 1 2 103   0 -2.415432e+03  5.599135e+02 -1.506600e+02  2.484051e+03 0.0022 0.0 9.0
22  1 1 2   0   0  2.415432e+03 -5.599135e+02  1.695032e+02  2.485265e+03 0.0 0.0 9.0
#pdf 21 2 3.837046e-01 3.808057e-01 5000.0 1.286483e-02 1.334099e-02
</event>
<event>
4 7 1.0 5000.0 7.905138e-03 7.739137e-02
21 -1 0 0 103 101  0.000000e+00  0.000000e+00  3.082173e+03  3.082173e+03 0.0 0.0 9.0
 2 -1 0 0 101   0  0.000000e+00  0.000000e+00 -2.003987e+03  2.003987e+03 0.0 0.0 9.0
 2  1 1 2 103   0  4.551640e+02  2.390415e+03  1.056191e+03  2.652697e+03 0.0022 0.0 9.0
22  1 1 2   0   0 -4.551640e+02 -2.390415e+03  2.199423e+01  2.433463e+03 0.0 0.0 9.0
#pdf 21 2 4.741804e-01 3.083057e-01 5000.0 4.004555e-03 3.256902e-02
</event>
<event>
4 7 1.0 5000.0 7.905138e-03 7.739137e-02
21 -1 0 0 103 101  0.000000e+00  0.000000e+00  1.961005e+03  1.961005e+03 0.0 0.0 9.0
 2 -1 0 0 101   0  0.000000e+00  0.000000e+00 -3.357458e+03  3.357458e+03 0.0 0.0 9.0
 2  1 1 2 103   0  1.290935e+03  2.002792e+02 -2.987008e+03  3.260190e+03 0.0022 0.0 9.0
22  1 1 2   0   0 -1.290935e+03 -2.002792e+02  1.590554e+03  2.058273e+03 0.0 0.0 9.0
#pdf 21 2 3.016930e-01 5.165320e-01 5000.0 3.528744e-02 2.238927e-03
</event>
<event>
4 7 1.0 5000.0 7.905138e-03 7.739137e-02
 2 -1 0 0 101   0  0.000000e+00  0.000000e+00  1.622603e+03  1.622603e+03 0.0 0.0 9.0
21 -1 0 0 103 101  0.000000e+00  0.000000e+00 -3.806041e+03  3.806041e+03 0.0 0.0 9.0
22  1 1 2   0   0 -1.494480e+03  1.218561e+03 -2.803903e+03  3.402974e+03 0.0 0.0 9.0
 2  1 1 2 103   0  1.494480e+03 -1.218561e+03  6.204659e+02  2.025670e+03 0.0022 0.0 9.0
#pdf 2 21 2.496313e-01 5.855447e-01 5000.0 3.140961e-01 3.330456e-02
</event>
<event>
4 7 1.0 5000.0 7.905138e-03 7.739137e-02
21 -1 0 0 103 101  0.000000e+00  0.000000e+00  3.647435e+03  3.647435e+03 0.0 0.0 9.0
 2 -1 0 0 101   0  0.000000e+00  0.000000e+00 -1.751804e+03  1.751804e+03 0.0 0.0 9.0
22  1 1 2   0   0 -1.895758e+03  2.938984e+02 -8.100910e+02  2.082432e+03 0.0 0.0 9.0
 2  1 1 2 103   0  1.895758e+03 -2.938984e+02  2.705722e+03  3.316807e+03 0.0022 0.0 9.0
#pdf 21 2 5.611438e-01 2.695083e-01 5000.0 1.173056e-03 5.236133e-02
</event>
<event>
4 7 1.0 5000.0 7.905138e-03 7.739137e-02
 2 -1 0 0 101   0  0.000000e+00  0.000000e+00  4.280405e+03  4.280405e+03 0.0 0.0 9.0
21 -1 0 0 103 101  0.000000e+00  0.000000e+00 -1.494874e+03  1.494874e+03 0.0 0.0 9.0
 2  1 1 2 103   0  2.166050e+03  9.834033e+02  2.374648e+03  3.361221e+03 0.0022 0.0 9.0
22  1 1 2   0   0 -2.166050e+03 -9.834033e+02  4.108834e+02  2.414058e+03 0.0 0.0 9.0
#pdf 2 21 6.585239e-01 2.299806e-01 5000.0 1.519537e-02 3.407558e-01
</event>
<event>
4 7 1.0 5000.0 7.905138e-03 7.739137e-02
21 -1 0 0 103 101  0.000000e+00  0.000000e+00  1.915076e+03  1.915076e+03 0.0 0.0 9.0
 2 -1 0 0 101   0  0.000000e+00  0.000000e+00 -3.449921e+03  3.449921e+03 0.0 0.0 9.0
 2  1 1 2 103   0  1.859175e+03  1.518329e+03 -1.726760e+03  2.956950e+03 0.0022 0.0 9.0
22  1 1 2   0   0 -1.859175e+03 -1.518329e+03  1.919146e+02  2.408046e+03 0.0 0.0 9.0
#pdf 21 2 2.946270e-01 5.307571e-01 5000.0 3.850902e-02 1.830126e-03
</event>
<event>
4 7 1.0 5000.0 7.905138e-03 7.739137e-02
 2 -1 0 0 101   0  0.000000e+00  0.000000e+00  2.396789e+03  2.396789e+03 0.0 0.0 9.0
21 -1 0 0 103 101  0.000000e+00  0.000000e+00 -2.783956e+03  2.783956e+03 0.0 0.0 9.0
 2  1 1 2 103   0  1.820278e+03 -1.797127e+03 -5.544198e+02  2.617338e+03 0.0022 0.0 9.0
22  1 1 2   0   0 -1.820278e+03  1.797127e+03  1.672537e+02  2.563407e+03 0.0 0.0 9.0
#pdf 2 21 3.687368e-01 4.283009e-01 5000.0 1.722342e-01 1.186748e-01
</event>
<event>
4 7 1.0 5000.0 7.905138e-03 7.739137e-02
 2 -1 0 0 101   0  0.000000e+00  0.000000e+00  3.988961e+03  3.988961e+03 0.0 0.0 9.0
21 -1 0 0 103 101  0.000000e+00  0.000000e+00 -1.568777e+03  1.568777e+03 0.0 0.0 9.0
22  1 1 2   0   0 -2.094975e+03 -9.913043e+02  2.255824e+03  3.234245e+03 0.0 0.0 9.0
 2  1 1 2 103   0  2.094975e+03  9.913043e+02  1.643599e+02  2.323492e+03 0.0022 0.0 9.0
#pdf 2 21 6.136863e-01 2.413503e-01 5000.0 2.507367e-02 3.252421e-01
</event>
<event>
4 7 1.0 5000.0 7.905138e-03 7.739137e-02
21 -1 0 0 103 101  0.000000e+00  0.000000e+00  1.713021e+03  1.713021e+03 0.0 0.0 9.0
 2 -1 0 0 101   0  0.000000e+00  0.000000e+00 -3.631323e+03  3.631323e+03 0.0 0.0 9.0
 2  1 1 2 103   0  9.535242e+02 -1.570549e+03  8.478934e+02  2.023550e+03 0.0022 0.0 9.0
22  1 1 2   0   0 -9.535242e+02  1.570549e+03 -2.766196e+03  3.320794e+03 0.0 0.0 9.0
#pdf 21 2 2.635416e-01 5.586651e-01 5000.0 5.636377e-02 1.217216e-03
</event>
<event>
4 7 1.0 5000.0 7.905138e-03 7.739137e-02
 2 -1 0 0 101   0  0.000000e+00  0.000000e+00  2.561967e+03  2.561967e+03 0.0 0.0 9.0
21 -1 0 0 103 101  0.000000e+00  0.000000e+00 -2.490677e+03  2.490677e+03 0.0 0.0 9.0
 2  1 1 2 103   0  2.036067e+03  7.500765e+02  1.329161e+03  2.544573e+03 0.0022 0.0 9.0
22  1 1 2   0   0 -2.036067e+03 -7.500765e+02 -1.257871e+03  2.508072e+03 0.0 0.0 9.0
#pdf 2 21 3.941488e-01 3.831811e-01 5000.0 1.478731e-01 1.581125e-01
</event>
<event>
4 7 1.0 5000.0 7.905138e-03 7.739137e-02
21 -1 0 0 103 101  0.000000e+00  0.000000e+00  3.363709e+03  3.363709e+03 0.0 0.0 9.0
 2 -1 0 0 101   0  0.000000e+00  0.000000e+00 -1.678632e+03  1.678632e+03 0.0 0.0 9.0
 2  1 1 2 103   0 -7.030597e+02  2.248815e+03  1.169508e+03  2.630439e+03 0.0022 0.0 9.0
22  1 1 2   0   0  7.030597e+02 -2.248815e+03  5.155691e+02  2.411902e+03 0.0 0.0 9.0
#pdf 21 2 5.174937e-01 2.582511e-01 5000.0 2.208668e-03 6.021343e-02
</event>
<event>
4 7 1.0 5000.0 7.905138e-03 7.739137e-02
21 -1 0 0 103 101  0.000000e+00  0.000000e+00  2.407038e+03  2.407038e+03 0.0 0.0 9.0
 2 -1 0 0 101   0  0.000000e+00  0.000000e+00 -2.602146e+03  2.602146e+03 0.0 0.0 9.0
22  1 1 2   0   0 -5.270985e+01 -1.421451e+03  1.963175e+03  2.424327e+03 0.0 0.0 9.0
 2  1 1 2 103   0  5.270985e+01  1.421451e+03 -2.158283e+03  2.584857e+03 0.0022 0.0 9.0
#pdf 21 2 3.703136e-01 4.003301e-01 5000.0 1.517657e-02 1.043636e-02
</event>
<event>
4 7 1.0 5000.0 7.905138e-03 7.739137e-02
 2 -1 0 0 101   0  0.000000e+00  0.000000e+00  2.426694e+03  2.426694e+03 0.0 0.0 9.0
21 -1 0 0 103 101  0.000000e+00  0.000000e+00 -2.598096e+03  2.598096e+03 0.0 0.0 9.0
 2  1 1 2 103   0 -4.289682e+02 -1.072755e+03 -2.316341e+03  2.588485e+03 0.0022 0.0 9.0
22  1 1 2   0   0  4.289682e+02  1.072755e+03  2.144939e+03  2.436305e+03 0.0 0.0 9.0
#pdf 2 21 3.733376e-01 3.997071e-01 5000.0 1.676552e-01 1.428386e-01
</event>
<event>
4 7 1.0 5000.0 7.905138e-03 7.739137e-02
 2 -1 0 0 101   0  0.000000e+00  0.000000e+00  2.747499e+03  2.747499e+03 0.0 0.0 9.0
21 -1 0 0 103 101  0.000000e+00  0.000000e+00 -2.030840e+03  2.030840e+03 0.0 0.0 9.0
 2  1 1 2 103   0  2.300044e+03  4.647477e+02  6.326065e+02  2.430306e+03 0.0022 0.0 9.0
22  1 1 2   0   0 -2.300044e+03 -4.647477e+02  8.405255e+01  2.348033e+03 0.0 0.0 9.0
#pdf 2 21 4.226921e-01 3.124369e-01 5000.0 1.231840e-01 2.341562e-01
</event>
<event>
4 7 1.0 5000.0 7.905138e-03 7.739137e-02
 2 -1 0 0 101   0  0.000000e+00  0.000000e+00  2.264120e+03  2.264120e+03 0.0 0.0 9.0
21 -1 0 0 103 101  0.000000e+00  0.000000e+00 -2.684021e+03  2.684021e+03 0.0 0.0 9.0
22  1 1 2   0   0  1.702948e+03 -1.388159e+02  1.573459e+03  2.322730e+03 0.0 0.0 9.0
 2  1 1 2 103   0 -1.702948e+03  1.388159e+02 -1.993360e+03  2.625411e+03 0.0022 0.0 9.0
#pdf 2 21 3.483262e-01 4.129263e-01 5000.0 1.934637e-01 1.313078e-01
</event>
<event>
4 7 1.0 5000.0 7.905138e-03 7.739137e-02
 2 -1 0 0 101   0  0.000000e+00  0.000000e+00  4.191459e+03  4.191459e+03 0.0 0.0 9.0
21 -1 0 0 103 101  0.000000e+00  0.000000e+00 -1.446348e+03  1.446348e+03 0.0 0.0 9.0
22  1 1 2   0   0  6.494305e+02 -1.789871e+03  3.159787e+03  3.689126e+03 0.0 0.0 9.0
 2  1 1 2 103   0 -6.494305e+02  1.789871e+03 -4.146770e+02  1.948681e+03 0.0022 0.0 9.0
#pdf 2 21 6.448398e-01 2.225151e-01 5000.0 1.782072e-02 3.509680e-01
</event>
<event>
4 7 1.0 5000.0 7.905138e-03 7.739137e-02
21 -1 0 0 103 101  0.000000e+00  0.000000e+00  1.764497e+03  1.764497e+03 0.0 0.0 9.0
 2 -1 0 0 101   0  0.000000e+00  0.000000e+00 -3.582162e+03  3.582162e+03 0.0 0.0 9.0
 2  1 1 2 103   0 -1.181124e+03  1.729815e+03  5.696983e+02  2.170684e+03 0.0022 0.0 9.0
22  1 1 2   0   0  1.181124e+03 -1.729815e+03 -2.387363e+03  3.175975e+03 0.0 0.0 9.0
#pdf 21 2 2.714611e-01 5.511019e-01 5000.0 5.111876e-02 1.359204e-03
</event>
<event>
4 7 1.0 5000.0 7.905138e-03 7.739137e-02
 2 -1 0 0 101   0  0.000000e+00  0.000000e+00  4.152886e+03  4.152886e+03 0.0 0.0 9.0
21 -1 0 0 103 101  0.000000e+00  0.000000e+00 -1.302233e+03  1.302233e+03 0.0 0.0 9.0
 2  1 1 2 103   0 -1.724998e+03 -2.275346e+02  3.235004e+03  3.673233e+03 0.0022 0.0 9.0
22  1 1 2   0   0  1.724998e+03  2.275346e+02 -3.843511e+02  1.781885e+03 0.0 0.0 9.0
#pdf 2 21 6.389055e-01 2.003435e-01 5000.0 1.906376e-02 3.815529e-01
</event>
<event>
4 7 1.0 5000.0 7.905138e-03 7.739137e-02
21 -1 0 0 103 101  0.000000e+00  0.000000e+00  2.955249e+03  2.955249e+03 0.0 0.0 9.0
 2 -1 0 0 101   0  0.000000e+00  0.000000e+00 -1.721620e+03  1.721620e+03 0.0 0.0 9.0
 2  1 1 2 103   0  6.688015e+02  2.617124e+02  2.833550e+03  2.923148e+03 0.0022 0.0 9.0
22  1 1 2   0   0 -6.688015e+02 -2.617124e+02 -1.599921e+03  1.753720e+03 0.0 0.0 9.0
#pdf 21 2 4.546537e-01 2.648645e-01 5000.0 5.191888e-03 5.544810e-02
</event>
<event>
4 7 1.0 5000.0 7.905138e-03 7.739137e-02
21 -1 0 0 103 101  0.000000e+00  0.000000e+00  2.812390e+03  2.812390e+03 0.0 0.0 9.0
 2 -1 0 0 101   0  0.000000e+00  0.000000e+00 -1.840660e+03  1.840660e+03 0.0 0.0 9.0
22  1 1 2   0   0  8.583423e+02 -1.824390e+03 -5.921828e+02  2.101388e+03 0.0 0.0 9.0
 2  1 1 2 103   0 -8.583423e+02  1.824390e+03  1.563913e+03  2.551661e+03 0.0022 0.0 9.0
#pdf 21 2 4.326754e-01 2.831784e-01 5000.0 6.910698e-03 4.425797e-02
</event>
<event>
4 7 1.0 5000.0 7.905138e-03 7.739137e-02
21 -1 0 0 103 101  0.000000e+00  0.000000e+00  1.949641e+03  1.949641e+03 0.0 0.0 9.0
 2 -1 0 0 101   0  0.000000e+00  0.000000e+00 -3.181996e+03  3.181996e+03 0.0 0.0 9.0
 2  1 1 2 103   0 -1.104651e+03 -1.370076e+03 -2.431804e+03  3.001839e+03 0.0022 0.0 9.0
22  1 1 2   0   0  1.104651e+03  1.370076e+03  1.199449e+03  2.129798e+03 0.0 0.0 9.0
#pdf 21 2 2.999447e-01 4.895379e-01 5000.0 3.603568e-02 3.252804e-03
</event>
<event>
4 7 1.0 5000.0 7.905138e-03 7.739137e-02
21 -1 0 0 103 101  0.000000e+00  0.000000e+00  3.666778e+03  3.666778e+03 0.0 0.0 9.0
 2 -1 0 0 101   0  0.000000e+00  0.000000e+00 -1.743644e+03  1.743644e+03 0.0 0.0 9.0
22  1 1 2   0   0 -3.298854e+02 -2.476667e+03  5.460350e+02  2.557510e+03 0.0 0.0 9.0
 2  1 1 2 103   0  3.298854e+02  2.476667e+03  1.377100e+03  2.852912e+03 0.0022 0.0 9.0
#pdf 21 2 5.641198e-01 2.682529e-01 5000.0 1.121477e-03 5.317700e-02
</event>
<event>
4 7 1.0 5000.0 7.905138e-03 7.739137e-02
 2 -1 0 0 101   0  0.000000e+00  0.000000e+00  3.056452e+03  3.056452e+03 0.0 0.0 9.0
21 -1 0 0 103 101  0.000000e+00  0.000000e+00 -2.021429e+03  2.021429e+03 0.0 0.0 9.0
 2  1 1 2 103   0 -2.403009e+03  4.985363e+02  9.201860e+02  2.621018e+03 0.0022 0.0 9.0
22  1 1 2   0   0  2.403009e+03 -4.985363e+02  1.148370e+02  2.456864e+03 0.0 0.0 9.0
#pdf 2 21 4.702234e-01 3.109891e-01 5000.0 8.841027e-02 2.358815e-01
</event>
<event>
4 7 1.0 5000.0 7.905138e-03 7.739137e-02
 2 -1 0 0 101   0  0.000000e+00  0.000000e+00  1.422077e+03  1.422077e+03 0.0 0.0 9.0
21 -1 0 0 103 101  0.000000e+00  0.000000e+00 -4.372677e+03  4.372677e+03 0.0 0.0 9.0
 2  1 1 2 103   0 -1.610082e+03  1.333202e+03 -3.055013e+03  3.701743e+03 0.0022 0.0 9.0
22  1 1 2   0   0  1.610082e+03 -1.333202e+03  1.044130e+02  2.093011e+03 0.0 0.0 9.0
#pdf 2 21 2.187811e-01 6.727195e-01 5000.0 3.560838e-01 1.277343e-02
</event>
<event>
4 7 1.0 5000.0 7.905138e-03 7.739137e-02
21 -1 0 0 103 101  0.000000e+00  0.000000e+00  2.094811e+03  2.094811e+03 0.0 0.0 9.0
 2 -1 0 0 101   0  0.000000e+00  0.000000e+00 -3.089632e+03  3.089632e+03 0.0 0.0 9.0
22  1 1 2   0   0  1.445456e+03 -4.275637e+02  1.590794e+03  2.191524e+03 0.0 0.0 9.0
 2  1 1 2 103   0 -1.445456e+03  4.275637e+02 -2.585615e+03  2.992918e+03 0.0022 0.0 9.0
#pdf 21 2 3.222786e-01 4.753280e-01 5000.0 2.741724e-02 3.943312e-03
</event>
<event>
4 7 1.0 5000.0 7.905138e-03 7.739137e-02
21 -1 0 0 103 101  0.000000e+00  0.000000e+00  3.343189e+03  3.343189e+03 0.0 0.0 9.0
 2 -1 0 0 101   0  0.000000e+00  0.000000e+00 -1.934691e+03  1.934691e+03 0.0 0.0 9.0
 2  1 1 2 103   0 -1.460598e+03 -2.081991e+03  7.022466e+02  2.638405e+03 0.0022 0.0 9.0
22  1 1 2   0   0  1.460598e+03  2.081991e+03  7.062513e+02  2.639474e+03 0.0 0.0 9.0
#pdf 21 2 5.143367e-01 2.976447e-01 5000.0 2.309214e-03 3.709715e-02
</event>
<event>
4 7 1.0 5000.0 7.905138e-03 7.739137e-02
21 -1 0 0 103 101  0.000000e+00  0.000000e+00  3.204053e+03  3.204053e+03 0.0 0.0 9.0
 2 -1 0 0 101   0  0.000000e+00  0.000000e+00 -1.938018e+03  1.938018e+03 0.0 0.0 9.0
 2  1 1 2 103   0  1.823108e+03 -2.599172e+02  2.365097e+03  2.997493e+03 0.0022 0.0 9.0
22  1 1 2   0   0 -1.823108e+03  2.599172e+02 -1.099062e+03  2.144579e+03 0.0 0.0 9.0
#pdf 21 2 4.929313e-01 2.981566e-01 5000.0 3.105972e-03 3.685995e-02
</event>
<event>
4 7 1.0 5000.0 7.905138e-03 7.739137e-02
 2 -1 0 0 101   0  0.000000e+00  0.000000e+00  1.753304e+03  1.753304e+03 0.0 0.0 9.0
21 -1 0 0 103 101  0.000000e+00  0.000000e+00 -3.551028e+03  3.551028e+03 0.0 0.0 9.0
 2  1 1 2 103   0  1.737721e+03  9.943522e+02  6.839849e+02  2.115714e+03 0.0022 0.0 9.0
22  1 1 2   0   0 -1.737721e+03 -9.943522e+02 -2.481709e+03  3.188619e+03 0.0 0.0 9.0
#pdf 2 21 2.697391e-01 5.463120e-01 5000.0 2.875277e-01 4.789112e-02
</event>
<event>
4 7 1.0 5000.0 7.905138e-03 7.739137e-02
 2 -1 0 0 101   0  0.000000e+00  0.000000e+00  1.933800e+03  1.933800e+03 0.0 0.0 9.0
21 -1 0 0 103 101  0.000000e+00  0.000000e+00 -3.293469e+03  3.293469e+03 0.0 0.0 9.0
22  1 1 2   0   0 -1.463881e+03 -1.988923e+03 -1.218120e+03  2.753648e+03 0.0 0.0 9.0
 2  1 1 2 103   0  1.463881e+03  1.988923e+03 -1.415483e+02  2.473620e+03 0.0022 0.0 9.0
#pdf 2 21 2.975077e-01 5.066875e-01 5000.0 2.522560e-01 6.680707e-02
</event>
<event>
4 7 1.0 5000.0 7.905138e-03 7.739137e-02
 2 -1 0 0 101   0  0.000000e+00  0.000000e+00  2.176647e+03  2.176647e+03 0.0 0.0 9.0
21 -1 0 0 103 101  0.000000e+00  0.000000e+00 -2.744032e+03  2.744032e+03 0.0 0.0 9.0
 2  1 1 2 103   0  1.399507e+03 -2.003002e+03 -2.369873e+02  2.454954e+03 0.0022 0.0 9.0
22  1 1 2   0   0 -1.399507e+03  2.003002e+03 -3.303968e+02  2.465725e+03 0.0 0.0 9.0
#pdf 2 21 3.348688e-01 4.221587e-01 5000.0 2.082326e-01 1.236190e-01
</event>
<event>
4 7 1.0 5000.0 7.905138e-03 7.739137e-02
21 -1 0 0 103 101  0.000000e+00  0.000000e+00  3.349760e+03  3.349760e+03 0.0 0.0 9.0
 2 -1 0 0 101   0  0.000000e+00  0.000000e+00 -1.654092e+03  1.654092e+03 0.0 0.0 9.0
 2  1 1 2 103   0 -5.750882e+02 -8.049193e+02  3.118088e+03  3.271252e+03 0.0022 0.0 9.0
22  1 1 2   0   0  5.750882e+02  8.049193e+02 -1.422420e+03  1.732600e+03 0.0 0.0 9.0
#pdf 21 2 5.153476e-01 2.544758e-01 5000.0 2.276634e-03 6.313017e-02
</event>
<event>
4 7 1.0 5000.0 7.905138e-03 7.739137e-02
21 -1 0 0 103 101  0.000000e+00  0.000000e+00  3.508839e+03  3.508839e+03 0.0 0.0 9.0
 2 -1 0 0 101   0  0.000000e+00  0.000000e+00 -1.824251e+03  1.824251e+03 0.0 0.0 9.0
 2  1 1 2 103   0 -9.348659e+02 -3.426869e+02  3.293655e+03  3.440868e+03 0.0022 0.0 9.0
22  1 1 2   0   0  9.348659e+02  3.426869e+02 -1.609067e+03  1.892222e+03 0.0 0.0 9.0
#pdf 21 2 5.398214e-01 2.806540e-01 5000.0 1.603923e-03 4.565531e-02
</event>
<event>
4 7 1.0 5000.0 7.905138e-03 7.739137e-02
 2 -1 0 0 101   0  0.000000e+00  0.000000e+00  3.143202e+03  3.143202e+03 0.0 0.0 9.0
21 -1 0 0 103 101  0.000000e+00  0.000000e+00 -2.059366e+03  2.059366e+03 0.0 0.0 9.0
22  1 1 2   0   0  8.648142e+02  1.774660e+03 -1.098977e+03  2.259441e+03 0.0 0.0 9.0
 2  1 1 2 103   0 -8.648142e+02 -1.774660e+03  2.182812e+03  2.943126e+03 0.0022 0.0 9.0
#pdf 2 21 4.835695e-01 3.168255e-01 5000.0 8.000868e-02 2.289665e-01
</event>
<event>
4 7 1.0 5000.0 7.905138e-03 7.739137e-02
21 -1 0 0 103 101  0.000000e+00  0.000000e+00  1.921353e+03  1.921353e+03 0.0 0.0 9.0
 2 -1 0 0 101   0  0.000000e+00  0.000000e+00 -3.159921e+03  3.159921e+03 0.0 0.0 9.0
 2  1 1 2 103   0 -2.198771e+03 -5.598809e+02 -1.610033e+03  2.782133e+03 0.0022 0.0 9.0
22  1 1 2   0   0  2.198771e+03  5.598809e+02  3.714651e+02  2.299140e+03 0.0 0.0 9.0
#pdf 21 2 2.955928e-01 4.861417e-01 5000.0 3.805430e-02 3.406282e-03
</event>
<event>
4 7 1.0 5000.0 7.905138e-03 7.739137e-02
21 -1 0 0 103 101  0.000000e+00  0.000000e+00  2.404022e+03  2.404022e+03 0.0 0.0 9.0
 2 -1 0 0 101   0  0.000000e+00  0.000000e+00 -2.581266e+03  2.581266e+03 0.0 0.0 9.0
 2  1 1 2 103   0  2.120037e+03 -6.741013e+02 -1.210247e+03  2.532522e+03 0.0022 0.0 9.0
22  1 1 2   0   0 -2.120037e+03  6.741013e+02  1.033003e+03  2.452766e+03 0.0 0.0 9.0
#pdf 21 2 3.698495e-01 3.971179e-01 5000.0 1.526425e-02 1.086640e-02
</event>
<event>
4 7 1.0 5000.0 7.905138e-03 7.739137e-02
 2 -1 0 0 101   0  0.000000e+00  0.000000e+00  3.855406e+03  3.855406e+03 0.0 0.0 9.0
21 -1 0 0 103 101  0.000000e+00  0.000000e+00 -1.510775e+03  1.510775e+03 0.0 0.0 9.0
22  1 1 2   0   0 -2.287964e+02 -1.858546e+03 -5.203352e+02  1.943525e+03 0.0 0.0 9.0
 2  1 1 2 103   0  2.287964e+02  1.858546e+03  2.864966e+03  3.422656e+03 0.0022 0.0 9.0
#pdf 2 21 5.931393e-01 2.324269e-01 5000.0 3.091130e-02 3.374017e-01
</event>
<event>
4 7 1.0 5000.0 7.905138e-03 7.739137e-02
21 -1 0 0 103 101  0.000000e+00  0.000000e+00  4.170525e+03  4.170525e+03 0.0 0.0 9.0
 2 -1 0 0 101   0  0.000000e+00  0.000000e+00 -1.512859e+03  1.512859e+03 0.0 0.0 9.0
 2  1 1 2 103   0 -1.189781e+03 -1.865062e+03 -1.708592e+01  2.212313e+03 0.0022 0.0 9.0
22  1 1 2   0   0  1.189781e+03  1.865062e+03  2.674753e+03  3.471071e+03 0.0 0.0 9.0
#pdf 21 2 6.416193e-01 2.327475e-01 5000.0 3.209105e-04 8.275310e-02
</event>
<event>
4 7 1.0 5000.0 7.905138e-03 7.739137e-02
21 -1 0 0 103 101  0.000000e+00  0.000000e+00  1.847969e+03  1.847969e+03 0.0 0.0 9.0
 2 -1 0 0 101   0  0.000000e+00  0.000000e+00 -2.995163e+03  2.995163e+03 0.0 0.0 9.0
22  1 1 2   0   0  1.636978e+03 -5.519127e+02  1.070265e+03  2.032184e+03 0.0 0.0 9.0
 2  1 1 2 103   0 -1.636978e+03  5.519127e+02 -2.217459e+03  2.810948e+03 0.0022 0.0 9.0
#pdf 21 2 2.843029e-01 4.607943e-01 5000.0 4.365362e-02 4.784638e-03
</event>
<event>
4 7 1.0 5000.0 7.905138e-03 7.739137e-02
 2 -1 0 0 101   0  0.000000e+00  0.000000e+00  3.252511e+03  3.252511e+03 0.0 0.0 9.0
21 -1 0 0 103 101  0.000000e+00  0.000000e+00 -1.715606e+03  1.715606e+03 0.0 0.0 9.0
 2  1 1 2 103   0  2.082118e+03  7.089971e+02  1.674362e+03  2.764305e+03 0.0022 0.0 9.0
22  1 1 2   0   0 -2.082118e+03 -7.089971e+02 -1.374581e+02  2.203812e+03 0.0 0.0 9.0
#pdf 2 21 5.003862e-01 2.639394e-01 5000.0 7.024009e-02 2.951198e-01
</event>
<event>
4 7 1.0 5000.0 7.905138e-03 7.739137e-02
21 -1 0 0 103 101  0.000000e+00  0.000000e+00  1.546878e+03  1.546878e+03 0.0 0.0 9.0
 2 -1 0 0 101   0  0.000000e+00  0.000000e+00 -4.149143e+03  4.149143e+03 0.0 0.0 9.0
22  1 1 2   0   0  9.466529e+02  2.155048e+03 -2.354406e+03  3.329206e+03 0.0 0.0 9.0
 2  1 1 2 103   0 -9.466529e+02 -2.155048e+03 -2.478585e+02  2.366816e+03 0.0022 0.0 9.0
#pdf 21 2 2.379813e-01 6.383297e-01 5000.0 7.754684e-02 3.396986e-04
</event>
<event>
4 7 1.0 5000.0 7.905138e-03 7.739137e-02
21 -1 0 0 103 101  0.000000e+00  0.000000e+00  1.466762e+03  1.466762e+03 0.0 0.0 9.0
 2 -1 0 0 101   0  0.000000e+00  0.000000e+00 -4.225782e+03  4.225782e+03 0.0 0.0 9.0
 2  1 1 2 103   0  2.605046e+02  2.213432e+03 -1.110251e+02  2.231472e+03 0.0022 0.0 9.0
22  1 1 2   0   0 -2.605046e+02 -2.213432e+03 -2.647994e+03  3.461071e+03 0.0 0.0 9.0
#pdf 21 2 2.256557e-01 6.501202e-01 5000.0 9.048554e-02 2.764231e-04
</event>
<event>
4 7 1.0 5000.0 7.905138e-03 7.739137e-02
21 -1 0 0 103 101  0.000000e+00  0.000000e+00  4.193553e+03  4.193553e+03 0.0 0.0 9.0
 2 -1 0 0 101   0  0.000000e+00  0.000000e+00 -1.460526e+03  1.460526e+03 0.0 0.0 9.0
 2  1 1 2 103   0  9.134537e+02 -1.396829e+03 -7.209148e+02  1.818034e+03 0.0022 0.0 9.0
22  1 1 2   0   0 -9.134537e+02  1.396829e+03  3.453941e+03  3.836045e+03 0.0 0.0 9.0
#pdf 21 2 6.451619e-01 2.246963e-01 5000.0 3.015749e-04 9.160089e-02
</event>
<event>
4 7 1.0 5000.0 7.905138e-03 7.739137e-02
21 -1 0 0 103 101  0.000000e+00  0.000000e+00  3.364548e+03  3.364548e+03 0.0 0.0 9.0
 2 -1 0 0 101   0  0.000000e+00  0.000000e+00 -1.880695e+03  1.880695e+03 0.0 0.0 9.0
22  1 1 2   0   0 -2.636616e+02 -2.477738e+03  3.822914e+02  2.520883e+03 0.0 0.0 9.0
 2  1 1 2 103   0  2.636616e+02  2.477738e+03  1.101562e+03  2.724361e+03 0.0022 0.0 9.0
#pdf 21 2 5.176228e-01 2.893377e-01 5000.0 2.204628e-03 4.106709e-02
</event>
<event>
4 7 1.0 5000.0 7.905138e-03 7.739137e-02
 2 -1 0 0 101   0  0.000000e+00  0.000000e+00  1.223587e+03  1.223587e+03 0.0 0.0 9.0
21 -1 0 0 103 101  0.000000e+00  0.000000e+00 -5.090114e+03  5.090114e+03 0.0 0.0 9.0
 2  1 1 2 103   0  7.504244e+01  1.241542e+03 -4.670098e+03  4.832895e+03 0.0022 0.0 9.0
22  1 1 2   0   0 -7.504244e+01 -1.241542e+03  8.035716e+02  1.480806e+03 0.0 0.0 9.0
#pdf 2 21 1.882442e-01 7.830944e-01 5000.0 3.981975e-01 2.370598e-03
</event>
<event>
4 7 1.0 5000.0 7.905138e-03 7.739137e-02
21 -1 0 0 103 101  0.000000e+00  0.000000e+00  3.203595e+03  3.203595e+03 0.0 0.0 9.0
 2 -1 0 0 101   0  0.000000e+00  0.000000e+00 -2.159880e+03  2.159880e+03 0.0 0.0 9.0
22  1 1 2   0   0  2.085443e+03  1.570410e+03  8.508251e+02  2.745754e+03 0.0 0.0 9.0
 2  1 1 2 103   0 -2.085443e+03 -1.570410e+03  1.928902e+02  2.617722e+03 0.0022 0.0 9.0
#pdf 21 2 4.928608e-01 3.322892e-01 5000.0 3.108958e-03 2.425610e-02
</event>
<event>
4 7 1.0 5000.0 7.905138e-03 7.739137e-02
 2 -1 0 0 101   0  0.000000e+00  0.000000e+00  3.090876e+03  3.090876e+03 0.0 0.0 9.0
21 -1 0 0 103 101  0.000000e+00  0.000000e+00 -1.902727e+03  1.902727e+03 0.0 0.0 9.0
22  1 1 2   0   0 -9.508900e+02 -1.846346e+03  1.883259e+03  2.803543e+03 0.0 0.0 9.0
 2  1 1 2 103   0  9.508900e+02  1.846346e+03 -6.951102e+02  2.190060e+03 0.0022 0.0 9.0
#pdf 2 21 4.755194e-01 2.927272e-01 5000.0 8.500563e-02 2.581821e-01
</event>
<event>
4 7 1.0 5000.0 7.905138e-03 7.739137e-02
21 -1 0 0 103 101  0.000000e+00  0.000000e+00  2.277819e+03  2.277819e+03 0.0 0.0 9.0
 2 -1 0 0 101   0  0.000000e+00  0.000000e+00 -2.761042e+03  2.761042e+03 0.0 0.0 9.0
 2  1 1 2 103   0 -2.078418e+03  1.118732e+03 -1.092750e+03  2.601055e+03 0.0022 0.0 9.0
22  1 1 2   0   0  2.078418e+03 -1.118732e+03  6.095271e+02  2.437807e+03 0.0 0.0 9.0
#pdf 21 2 3.504338e-01 4.247758e-01 5000.0 1.941562e-02 7.648240e-03
</event>
<event>
4 7 1.0 5000.0 7.905138e-03 7.739137e-02
21 -1 0 0 103 101  0.000000e+00  0.000000e+00  1.825508e+03  1.825508e+03 0.0 0.0 9.0
 2 -1 0 0 101   0  0.000000e+00  0.000000e+00 -3.259425e+03  3.259425e+03 0.0 0.0 9.0
 2  1 1 2 103   0 -1.028451e+03 -4.008344e+02 -2.984225e+03  3.181820e+03 0.0022 0.0 9.0
22  1 1 2   0   0  1.028451e+03  4.008344e+02  1.550309e+03  1.903113e+03 0.0 0.0 9.0
#pdf 21 2 2.808474e-01 5.014499e-01 5000.0 4.554654e-02 2.762288e-03
</event>
<event>
4 7 1.0 5000.0 7.905138e-03 7.739137e-02
21 -1 0 0 103 101  0.000000e+00  0.000000e+00  1.258579e+03  1.258579e+03 0.0 0.0 9.0
 2 -1 0 0 101   0  0.000000e+00  0.000000e+00 -4.872183e+03  4.872183e+03 0.0 0.0 9.0
22  1 1 2   0   0  1.137128e+03  3.143765e+02  8.883151e+02  1.476820e+03 0.0 0.0 9.0
 2  1 1 2 103   0 -1.137128e+03 -3.143765e+02 -4.501919e+03  4.653941e+03 0.0022 0.0 9.0
#pdf 21 2 1.936275e-01 7.495665e-01 5000.0 1.366984e-01 3.718236e-05
</event>
<event>
4 7 1.0 5000.0 7.905138e-03 7.739137e-02
 2 -1 0 0 101   0  0.000000e+00  0.000000e+00  1.848062e+03  1.848062e+03 0.0 0.0 9.0
21 -1 0 0 103 101  0.000000e+00  0.000000e+00 -3.341041e+03  3.341041e+03 0.0 0.0 9.0
22  1 1 2   0   0  1.310439e+03 -4.219688e+02 -2.906428e+03  3.215997e+03 0.0 0.0 9.0
 2  1 1 2 103   0 -1.310439e+03  4.219688e+02  1.413449e+03  1.973106e+03 0.0022 0.0 9.0
#pdf 2 21 2.843172e-01 5.140063e-01 5000.0 2.687778e-01 6.297020e-02
</event>
<event>
4 7 1.0 5000.0 7.905138e-03 7.739137e-02
21 -1 0 0 103 101  0.000000e+00  0.000000e+00  2.486226e+03  2.486226e+03 0.0 0.0 9.0
 2 -1 0 0 101   0  0.000000e+00  0.000000e+00 -2.519875e+03  2.519875e+03 0.0 0.0 9.0
 2  1 1 2 103   0 -1.142411e+03 -2.220576e+03 -1.868798e+02  2.504193e+03 0.0022 0.0 9.0
22  1 1 2   0   0  1.142411e+03  2.220576e+03  1.532312e+02  2.501907e+03 0.0 0.0 9.0
#pdf 21 2 3.824963e-01 3.876730e-01 5000.0 1.306156e-02 1.223733e-02
</event>
<event>
4 7 1.0 5000.0 7.905138e-03 7.739137e-02
21 -1 0 0 103 101  0.000000e+00  0.000000e+00  2.071094e+03  2.071094e+03 0.0 0.0 9.0
 2 -1 0 0 101   0  0.000000e+00  0.000000e+00 -2.968126e+03  2.968126e+03 0.0 0.0 9.0
 2  1 1 2 103   0  2.274280e+03 -3.714778e+02 -1.378199e+03  2.685103e+03 0.0022 0.0 9.0
22  1 1 2   0   0 -2.274280e+03  3.714778e+02  4.811665e+02  2.354117e+03 0.0 0.0 9.0
#pdf 21 2 3.186298e-01 4.566347e-01 5000.0 2.867045e-02 5.057252e-03
</event>
<event>
4 7 1.0 5000.0 7.905138e-03 7.739137e-02
 2 -1 0 0 101   0  0.000000e+00  0.000000e+00  4.667496e+03  4.667496e+03 0.0 0.0 9.0
21 -1 0 0 103 101  0.000000e+00  0.000000e+00 -1.374655e+03  1.374655e+03 0.0 0.0 9.0
22  1 1 2   0   0 -2.388891e+03  8.305179e+02  1.479288e+03  2.929992e+03 0.0 0.0 9.0
 2  1 1 2 103   0  2.388891e+03 -8.305179e+02  1.813554e+03  3.112160e+03 0.0022 0.0 9.0
#pdf 2 21 7.180763e-01 2.114854e-01 5000.0 6.942025e-03 3.661441e-01
</event>
<event>
4 7 1.0 5000.0 7.905138e-03 7.739137e-02
 2 -1 0 0 101   0  0.000000e+00  0.000000e+00  2.116020e+03  2.116020e+03 0.0 0.0 9.0
21 -1 0 0 103 101  0.000000e+00  0.000000e+00 -3.041197e+03  3.041197e+03 0.0 0.0 9.0
22  1 1 2   0   0  9.705623e+02 -1.136682e+03 -2.546070e+03  2.952374e+03 0.0 0.0 9.0
 2  1 1 2 103   0 -9.705623e+02  1.136682e+03  1.620893e+03  2.204843e+03 0.0022 0.0 9.0
#pdf 2 21 3.255415e-01 4.678765e-01 5000.0 2.188241e-01 8.994738e-02
</event>
<event>
4 7 1.0 5000.0 7.905138e-03 7.739137e-02
21 -1 0 0 103 101  0.000000e+00  0.000000e+00  1.295726e+03  1.295726e+03 0.0 0.0 9.0
 2 -1 0 0 101   0  0.000000e+00  0.000000e+00 -4.155976e+03  4.155976e+03 0.0 0.0 9.0
 2  1 1 2 103   0  2.014070e+03  2.160922e+02 -1.002081e+02  2.028106e+03 0.0022 0.0 9.0
22  1 1 2   0   0 -2.014070e+03 -2.160922e+02 -2.760042e+03  3.423596e+03 0.0 0.0 9.0
#pdf 21 2 1.993424e-01 6.393810e-01 5000.0 1.268980e-01 3.336004e-04
</event>
<event>
4 7 1.0 5000.0 7.905138e-03 7.739137e-02
21 -1 0 0 103 101  0.000000e+00  0.000000e+00  1.683456e+03  1.683456e+03 0.0 0.0 9.0
 2 -1 0 0 101   0  0.000000e+00  0.000000e+00 -3.598434e+03  3.598434e+03 0.0 0.0 9.0
22  1 1 2   0   0  1.877501e+03 -1.513013e+03 -1.487067e+03  2.832946e+03 0.0 0.0 9.0
 2  1 1 2 103   0 -1.877501e+03  1.513013e+03 -4.279111e+02  2.448943e+03 0.0022 0.0 9.0
#pdf 21 2 2.589932e-01 5.536052e-01 5000.0 5.965571e-02 1.310313e-03
</event>
<event>
4 7 1.0 5000.0 7.905138e-03 7.739137e-02
21 -1 0 0 103 101  0.000000e+00  0.000000e+00  2.074684e+03  2.074684e+03 0.0 0.0 9.0
 2 -1 0 0 101   0  0.000000e+00  0.000000e+00 -3.202994e+03  3.202994e+03 0.0 0.0 9.0
22  1 1 2   0   0 -1.971799e+03 -3.259795e+02  1.102552e+03  2.282515e+03 0.0 0.0 9.0
 2  1 1 2 103   0  1.971799e+03  3.259795e+02 -2.230862e+03  2.995163e+03 0.0022 0.0 9.0
#pdf 21 2 3.191821e-01 4.927683e-01 5000.0 2.847691e-02 3.112883e-03
</event>
<event>
4 7 1.0 5000.0 7.905138e-03 7.739137e-02
21 -1 0 0 103 101  0.000000e+00  0.000000e+00  2.125847e+03  2.125847e+03 0.0 0.0 9.0
 2 -1 0 0 101   0  0.000000e+00  0.000000e+00 -2.966723e+03  2.966723e+03 0.0 0.0 9.0
 2  1 1 2 103   0  2.406059e+03  2.934321e+02 -1.086527e+03  2.656269e+03 0.0022 0.0 9.0
22  1 1 2   0   0 -2.406059e+03 -2.934321e+02  2.456508e+02  2.436302e+03 0.0 0.0 9.0
#pdf 21 2 3.270534e-01 4.564189e-01 5000.0 2.586205e-02 5.071782e-03
</event>
<event>
4 7 1.0 5000.0 7.905138e-03 7.739137e-02
21 -1 0 0 103 101  0.000000e+00  0.000000e+00  2.215142e+03  2.215142e+03 0.0 0.0 9.0
 2 -1 0 0 101   0  0.000000e+00  0.000000e+00 -2.856020e+03  2.856020e+03 0.0 0.0 9.0
22  1 1 2   0   0  4.461672e+02  1.563879e+03  1.613847e+03  2.291132e+03 0.0 0.0 9.0
 2  1 1 2 103   0 -4.461672e+02 -1.563879e+03 -2.254725e+03  2.780030e+03 0.0022 0.0 9.0
#pdf 21 2 3.407911e-01 4.393877e-01 5000.0 2.185026e-02 6.340748e-03
</event>
<event>
4 7 1.0 5000.0 7.905138e-03 7.739137e-02
21 -1 0 0 103 101  0.000000e+00  0.000000e+00  1.861954e+03  1.861954e+03 0.0 0.0 9.0
 2 -1 0 0 101   0  0.000000e+00  0.000000e+00 -3.380710e+03  3.380710e+03 0.0 0.0 9.0
 2  1 1 2 103   0 -9.743753e+02  6.482580e+02 -3.078055e+03  3.293033e+03 0.0022 0.0 9.0
22  1 1 2   0   0  9.743753e+02 -6.482580e+02  1.559299e+03  1.949631e+03 0.0 0.0 9.0
#pdf 21 2 2.864545e-01 5.201092e-01 5000.0 4.252614e-02 2.128350e-03
</event>
<event>
4 7 1.0 5000.0 7.905138e-03 7.739137e-02
21 -1 0 0 103 101  0.000000e+00  0.000000e+00  2.293657e+03  2.293657e+03 0.0 0.0 9.0
 2 -1 0 0 101   0  0.000000e+00  0.000000e+00 -2.757627e+03  2.757627e+03 0.0 0.0 9.0
 2  1 1 2 103   0  1.198838e+03 -1.338313e+03 -1.999216e+03  2.687966e+03 0.0022 0.0 9.0
22  1 1 2   0   0 -1.198838e+03  1.338313e+03  1.535247e+03  2.363319e+03 0.0 0.0 9.0
#pdf 21 2 3.528704e-01 4.242503e-01 5000.0 1.883839e-02 7.700039e-03
</event>
<event>
4 7 1.0 5000.0 7.905138e-03 7.739137e-02
 2 -1 0 0 101   0  0.000000e+00  0.000000e+00  1.312780e+03  1.312780e+03 0.0 0.0 9.0
21 -1 0 0 103 101  0.000000e+00  0.000000e+00 -4.671702e+03  4.671702e+03 0.0 0.0 9.0
22  1 1 2   0   0 -1.851123e+03 -4.047885e+01 -3.666546e+03  4.107536e+03 0.0 0.0 9.0
 2  1 1 2 103   0  1.851123e+03  4.047885e+01  3.076244e+02  1.876946e+03 0.0022 0.0 9.0
#pdf 2 21 2.019662e-01 7.187234e-01 5000.0 3.793193e-01 6.876907e-03
</event>
<event>
4 7 1.0 5000.0 7.905138e-03 7.739137e-02
21 -1 0 0 103 101  0.000000e+00  0.000000e+00  3.726016e+03  3.726016e+03 0.0 0.0 9.0
 2 -1 0 0 101   0  0.000000e+00  0.000000e+00 -1.713589e+03  1.713589e+03 0.0 0.0 9.0
22  1 1 2   0   0  1.550295e+03 -1.359329e+03 -5.660488e+02  2.138131e+03 0.0 0.0 9.0
 2  1 1 2 103   0 -1.550295e+03  1.359329e+03  2.578476e+03  3.301474e+03 0.0022 0.0 9.0
#pdf 21 2 5.732332e-01 2.636290e-01 5000.0 9.751489e-04 5.630276e-02
</event>
<event>
4 7 1.0 5000.0 7.905138e-03 7.739137e-02
 2 -1 0 0 101   0  0.000000e+00  0.000000e+00  2.133325e+03  2.133325e+03 0.0 0.0 9.0
21 -1 0 0 103 101  0.000000e+00  0.000000e+00 -2.865431e+03  2.865431e+03 0.0 0.0 9.0
 2  1 1 2 103   0  3.731510e+02  1.717795e+03  1.391529e+03  2.241967e+03 0.0022 0.0 9.0
22  1 1 2   0   0 -3.731510e+02 -1.717795e+03 -2.123635e+03  2.756789e+03 0.0 0.0 9.0
#pdf 2 21 3.282038e-01 4.408356e-01 5000.0 2.157709e-01 1.090062e-01
</event>
<event>
4 7 1.0 5000.0 7.905138e-03 7.739137e-02
21 -1 0 0 103 101  0.000000e+00  0.000000e+00  2.064065e+03  2.064065e+03 0.0 0.0 9.0
 2 -1 0 0 101   0  0.000000e+00  0.000000e+00 -3.118043e+03  3.118043e+03 0.0 0.0 9.0
 2  1 1 2 103   0  1.795154e+03  1.712577e+03 -1.067767e+03  2.701042e+03 0.0022 0.0 9.0
22  1 1 2   0   0 -1.795154e+03 -1.712577e+03  1.378982e+01  2.481066e+03 0.0 0.0 9.0
#pdf 21 2 3.175485e-01 4.796989e-01 5000.0 2.905349e-02 3.717489e-03
</event>
<event>
4 7 1.0 5000.0 7.905138e-03 7.739137e-02
21 -1 0 0 103 101  0.000000e+00  0.000000e+00  2.849647e+03  2.849647e+03 0.0 0.0 9.0
 2 -1 0 0 101   0  0.000000e+00  0.000000e+00 -1.800597e+03  1.800597e+03 0.0 0.0 9.0
22  1 1 2   0   0 -1.722488e+03  1.178938e+03  1.427696e+03  2.528869e+03 0.0 0.0 9.0
 2  1 1 2 103   0  1.722488e+03 -1.178938e+03 -3.786460e+02  2.121375e+03 0.0022 0.0 9.0
#pdf 21 2 4.384073e-01 2.770149e-01 5000.0 6.421645e-03 4.774683e-02
</event>
<event>
4 7 1.0 5000.0 7.905138e-03 7.739137e-02
 2 -1 0 0 101   0  0.000000e+00  0.000000e+00  1.753117e+03  1.753117e+03 0.0 0.0 9.0
21 -1 0 0 103 101  0.000000e+00  0.000000e+00 -3.705596e+03  3.705596e+03 0.0 0.0 9.0
 2  1 1 2 103   0 -2.189722e+03 -8.191828e+02 -2.063237e+03  3.118155e+03 0.0022 0.0 9.0
22  1 1 2   0   0  2.189722e+03  8.191828e+02  1.107585e+02  2.340558e+03 0.0 0.0 9.0
#pdf 2 21 2.697103e-01 5.700916e-01 5000.0 2.875653e-01 3.859261e-02
</event>
<event>
4 7 1.0 5000.0 7.905138e-03 7.739137e-02
 2 -1 0 0 101   0  0.000000e+00  0.000000e+00  1.970172e+03  1.970172e+03 0.0 0.0 9.0
21 -1 0 0 103 101  0.000000e+00  0.000000e+00 -3.218739e+03  3.218739e+03 0.0 0.0 9.0
22  1 1 2   0   0 -3.834800e+02 -2.214969e+03 -1.793686e+03  2.875840e+03 0.0 0.0 9.0
 2  1 1 2 103   0  3.834800e+02  2.214969e+03  5.451201e+02  2.313071e+03 0.0022 0.0 9.0
#pdf 2 21 3.031034e-01 4.951906e-01 5000.0 2.454001e-01 7.316291e-02
</event>
<event>
4 7 1.0 5000.0 7.905138e-03 7.739137e-02
 2 -1 0 0 101   0  0.000000e+00  0.000000e+00  2.806345e+03  2.806345e+03 0.0 0.0 9.0
21 -1 0 0 103 101  0.000000e+00  0.000000e+00 -2.051275e+03  2.051275e+03 0.0 0.0 9.0
22  1 1 2   0   0  5.673584e+02 -1.666994e+03 -1.272186e+03  2.172377e+03 0.0 0.0 9.0
 2  1 1 2 103   0 -5.673584e+02  1.666994e+03  2.027256e+03  2.685243e+03 0.0022 0.0 9.0
#pdf 2 21 4.317454e-01 3.155807e-01 5000.0 1.159653e-01 2.304324e-01
</event>
<event>
4 7 1.0 5000.0 7.905138e-03 7.739137e-02
 2 -1 0 0 101   0  0.000000e+00  0.000000e+00  4.893596e+03  4.893596e+03 0.0 0.0 9.0
21 -1 0 0 103 101  0.000000e+00  0.000000e+00 -1.282785e+03  1.282785e+03 0.0 0.0 9.0
 2  1 1 2 103   0 -1.850519e+03 -1.162884e+03  3.315354e+03  3.970931e+03 0.0022 0.0 9.0
22  1 1 2   0   0  1.850519e+03  1.162884e+03  2.954560e+02  2.205450e+03 0.0 0.0 9.0
#pdf 2 21 7.528609e-01 1.973516e-01 5000.0 4.047322e-03 3.856936e-01
</event>
<event>
4 7 1.0 5000.0 7.905138e-03 7.739137e-02
21 -1 0 0 103 101  0.000000e+00  0.000000e+00  3.560775e+03  3.560775e+03 0.0 0.0 9.0
 2 -1 0 0 101   0  0.000000e+00  0.000000e+00 -1.729960e+03  1.729960e+03 0.0 0.0 9.0
22  1 1 2   0   0 -2.478757e+03 -1.099328e+02  8.507739e+02  2.623002e+03 0.0 0.0 9.0
 2  1 1 2 103   0  2.478757e+03  1.099328e+02  9.800407e+02  2.667734e+03 0.0022 0.0 9.0
#pdf 21 2 5.478115e-01 2.661478e-01 5000.0 1.427690e-03 5.457571e-02
</event>
<event>
4 7 1.0 5000.0 7.905138e-03 7.739137e-02
21 -1 0 0 103 101  0.000000e+00  0.000000e+00  4.276250e+03  4.276250e+03 0.0 0.0 9.0
 2 -1 0 0 101   0  0.000000e+00  0.000000e+00 -1.548819e+03  1.548819e+03 0.0 0.0 9.0
22  1 1 2   0   0 -2.472431e+03  4.900935e+02  7.756194e+02  2.637175e+03 0.0 0.0 9.0
 2  1 1 2 103   0  2.472431e+03 -4.900935e+02  1.951812e+03  3.187895e+03 0.0022 0.0 9.0
#pdf 21 2 6.578847e-01 2.382799e-01 5000.0 2.409765e-04 7.725909e-02
</event>
<event>
4 7 1.0 5000.0 7.905138e-03 7.739137e-02
21 -1 0 0 103 101  0.000000e+00  0.000000e+00  2.964843e+03  2.964843e+03 0.0 0.0 9.0
 2 -1 0 0 101   0  0.000000e+00  0.000000e+00 -2.121317e+03  2.121317e+03 0.0 0.0 9.0
22  1 1 2   0   0 -2.015563e+03  1.000607e+03  1.544407e+03  2.729268e+03 0.0 0.0 9.0
 2  1 1 2 103   0  2.015563e+03 -1.000607e+03 -7.008816e+02  2.356893e+03 0.0022 0.0 9.0
#pdf 21 2 4.561297e-01 3.263565e-01 5000.0 5.091312e-03 2.608341e-02
</event>
<event>
4 7 1.0 5000.0 7.905138e-03 7.739137e-02
 2 -1 0 0 101   0  0.000000e+00  0.000000e+00  3.339715e+03  3.339715e+03 0.0 0.0 9.0
21 -1 0 0 103 101  0.000000e+00  0.000000e+00 -1.315656e+03  1.315656e+03 0.0 0.0 9.0
22  1 1 2   0   0  1.191026e+03  9.085846e+02  2.640209e+03  3.035584e+03 0.0 0.0 9.0
 2  1 1 2 103   0 -1.191026e+03 -9.085846e+02 -6.161496e+02  1.619786e+03 0.0022 0.0 9.0
#pdf 2 21 5.138024e-01 2.024086e-01 5000.0 6.307494e-02 3.787113e-01
</event>
<event>
4 7 1.0 5000.0 7.905138e-03 7.739137e-02
21 -1 0 0 103 101  0.000000e+00  0.000000e+00  1.827196e+03  1.827196e+03 0.0 0.0 9.0
 2 -1 0 0 101   0  0.000000e+00  0.000000e+00 -3.368725e+03  3.368725e+03 0.0 0.0 9.0
22  1 1 2   0   0 -3.151359e+02 -1.458207e+03 -2.846555e+03  3.213807e+03 0.0 0.0 9.0
 2  1 1 2 103   0  3.151359e+02  1.458207e+03  1.305026e+03  1.982113e+03 0.0022 0.0 9.0
#pdf 21 2 2.811070e-01 5.182654e-01 5000.0 4.540092e-02 2.184632e-03
</event>
<event>
4 7 1.0 5000.0 7.905138e-03 7.739137e-02
 2 -1 0 0 101   0  0.000000e+00  0.000000e+00  3.008044e+03  3.008044e+03 0.0 0.0 9.0
21 -1 0 0 103 101  0.000000e+00  0.000000e+00 -1.922235e+03  1.922235e+03 0.0 0.0 9.0
22  1 1 2   0   0 -7.429852e+02 -2.010537e+03 -5.744289e+02  2.219066e+03 0.0 0.0 9.0
 2  1 1 2 103   0  7.429852e+02  2.010537e+03  1.660238e+03  2.711213e+03 0.0022 0.0 9.0
#pdf 2 21 4.627760e-01 2.957284e-01 5000.0 9.334504e-02 2.544516e-01
</event>
<event>
4 7 1.0 5000.0 7.905138e-03 7.739137e-02
21 -1 0 0 103 101  0.000000e+00  0.000000e+00  1.700233e+03  1.700233e+03 0.0 0.0 9.0
 2 -1 0 0 101   0  0.000000e+00  0.000000e+00 -3.609626e+03  3.609626e+03 0.0 0.0 9.0
 2  1 1 2 103   0  2.409176e+03  2.548879e+01 -3.367973e+02  2.432737e+03 0.0022 0.0 9.0
22  1 1 2   0   0 -2.409176e+03 -2.548879e+01 -1.572596e+03  2.877123e+03 0.0 0.0 9.0
#pdf 21 2 2.615743e-01 5.553271e-01 5000.0 5.775993e-02 1.278206e-03
</event>
<event>
4 7 1.0 5000.0 7.905138e-03 7.739137e-02
 2 -1 0 0 101   0  0.000000e+00  0.000000e+00  2.900847e+03  2.900847e+03 0.0 0.0 9.0
21 -1 0 0 103 101  0.000000e+00  0.000000e+00 -2.221005e+03  2.221005e+03 0.0 0.0 9.0
22  1 1 2   0   0  9.983908e+02 -7.415616e+02  2.572387e+03  2.857249e+03 0.0 0.0 9.0
 2  1 1 2 103   0 -9.983908e+02  7.415616e+02 -1.892545e+03  2.264602e+03 0.0022 0.0 9.0
#pdf 2 21 4.462841e-01 3.416931e-01 5000.0 1.049471e-01 2.006715e-01
</event>
<event>
4 7 1.0 5000.0 7.905138e-03 7.739137e-02
21 -1 0 0 103 101  0.000000e+00  0.000000e+00  2.420226e+03  2.420226e+03 0.0 0.0 9.0
 2 -1 0 0 101   0  0.000000e+00  0.000000e+00 -2.739005e+03  2.739005e+03 0.0 0.0 9.0
22  1 1 2   0   0 -8.234283e+02 -2.364376e+03 -7.611256e+02  2.616796e+03 0.0 0.0 9.0
 2  1 1 2 103   0  8.234283e+02  2.364376e+03  4.423465e+02  2.542435e+03 0.0022 0.0 9.0
#pdf 21 2 3.723425e-01 4.213854e-01 5000.0 1.480425e-02 7.987775e-03
</event>
<event>
4 7 1.0 5000.0 7.905138e-03 7.739137e-02
 2 -1 0 0 101   0  0.000000e+00  0.000000e+00  2.715073e+03  2.715073e+03 0.0 0.0 9.0
21 -1 0 0 103 101  0.000000e+00  0.000000e+00 -2.374470e+03  2.374470e+03 0.0 0.0 9.0
22  1 1 2   0   0  1.557022e+03 -1.027910e+03  1.896363e+03  2.660283e+03 0.0 0.0 9.0
 2  1 1 2 103   0 -1.557022e+03  1.027910e+03 -1.555759e+03  2.429260e+03 0.0022 0.0 9.0
#pdf 2 21 4.177036e-01 3.653031e-01 5000.0 1.272917e-01 1.757079e-01
</event>
<event>
4 7 1.0 5000.0 7.905138e-03 7.739137e-02
21 -1 0 0 103 101  0.000000e+00  0.000000e+00  2.322657e+03  2.322657e+03 0.0 0.0 9.0
 2 -1 0 0 101   0  0.000000e+00  0.000000e+00 -2.673295e+03  2.673295e+03 0.0 0.0 9.0
22  1 1 2   0   0  2.316359e+03  7.280622e+02  3.860234e+02  2.458578e+03 0.0 0.0 9.0
 2  1 1 2 103   0 -2.316359e+03 -7.280622e+02 -7.366613e+02  2.537373e+03 0.0022 0.0 9.0
#pdf 21 2 3.573318e-01 4.112761e-01 5000.0 1.782243e-02 9.084985e-03
</event>
<event>
4 7 1.0 5000.0 7.905138e-03 7.739137e-02
21 -1 0 0 103 101  0.000000e+00  0.000000e+00  1.911197e+03  1.911197e+03 0.0 0.0 9.0
 2 -1 0 0 101   0  0.000000e+00  0.000000e+00 -3.239420e+03  3.239420e+03 0.0 0.0 9.0
 2  1 1 2 103   0  2.262667e+03 -6.002302e+02  2.087560e+02  2.350216e+03 0.0022 0.0 9.0
22  1 1 2   0   0 -2.262667e+03  6.002302e+02 -1.536979e+03  2.800400e+03 0.0 0.0 9.0
#pdf 21 2 2.940302e-01 4.983723e-01 5000.0 3.879158e-02 2.882587e-03
</event>
<event>
4 7 1.0 5000.0 7.905138e-03 7.739137e-02
 2 -1 0 0 101   0  0.000000e+00  0.000000e+00  1.592396e+03  1.592396e+03 0.0 0.0 9.0
21 -1 0 0 103 101  0.000000e+00  0.000000e+00 -3.776959e+03  3.776959e+03 0.0 0.0 9.0
 2  1 1 2 103   0 -7.976674e+02 -2.270132e+03 -5.734330e+02  2.473580e+03 0.0022 0.0 9.0
22  1 1 2   0   0  7.976674e+02  2.270132e+03 -1.611130e+03  2.895775e+03 0.0 0.0 9.0
#pdf 2 21 2.449839e-01 5.810706e-01 5000.0 3.203724e-01 3.477649e-02
</event>
<event>
4 7 1.0 5000.0 7.905138e-03 7.739137e-02
 2 -1 0 0 101   0  0.000000e+00  0.000000e+00  1.633067e+03  1.633067e+03 0.0 0.0 9.0
21 -1 0 0 103 101  0.000000e+00  0.000000e+00 -3.784597e+03  3.784597e+03 0.0 0.0 9.0
 2  1 1 2 103   0  1.481996e+03  8.167566e+02  9.087266e+02  1.920726e+03 0.0022 0.0 9.0
22  1 1 2   0   0 -1.481996e+03 -8.167566e+02 -3.060257e+03  3.496938e+03 0.0 0.0 9.0
#pdf 2 21 2.512410e-01 5.822457e-01 5000.0 3.119339e-01 3.438537e-02
</event>
<event>
4 7 1.0 5000.0 7.905138e-03 7.739137e-02
21 -1 0 0 103 101  0.000000e+00  0.000000e+00  4.042881e+03  4.042881e+03 0.0 0.0 9.0
 2 -1 0 0 101   0  0.000000e+00  0.000000e+00 -1.549065e+03  1.549065e+03 0.0 0.0 9.0
 2  1 1 2 103   0  1.572615e+03  4.936149e+02 -8.569508e+02  1.857724e+03 0.0022 0.0 9.0
22  1 1 2   0   0 -1.572615e+03 -4.936149e+02  3.350767e+03  3.734222e+03 0.0 0.0 9.0
#pdf 21 2 6.219817e-01 2.383177e-01 5000.0 4.484051e-04 7.722277e-02
</event>
<event>
4 7 1.0 5000.0 7.905138e-03 7.739137e-02
 2 -1 0 0 101   0  0.000000e+00  0.000000e+00  1.963728e+03  1.963728e+03 0.0 0.0 9.0
21 -1 0 0 103 101  0.000000e+00  0.000000e+00 -3.119040e+03  3.119040e+03 0.0 0.0 9.0
 2  1 1 2 103   0  2.105441e+02 -2.461814e+03 -4.321077e+02  2.508301e+03 0.0022 0.0 9.0
22  1 1 2   0   0 -2.105441e+02  2.461814e+03 -7.232040e+02  2.574467e+03 0.0 0.0 9.0
#pdf 2 21 3.021120e-01 4.798523e-01 5000.0 2.466118e-01 8.228881e-02
</event>
<event>
4 7 1.0 5000.0 7.905138e-03 7.739137e-02
 2 -1 0 0 101   0  0.000000e+00  0.000000e+00  2.358977e+03  2.358977e+03 0.0 0.0 9.0
21 -1 0 0 103 101  0.000000e+00  0.000000e+00 -2.898449e+03  2.898449e+03 0.0 0.0 9.0
22  1 1 2   0   0 -9.834729e+02  2.004930e+03  1.097781e+03  2.488390e+03 0.0 0.0 9.0
 2  1 1 2 103   0  9.834729e+02 -2.004930e+03 -1.637253e+03  2.769036e+03 0.0022 0.0 9.0
#pdf 2 21 3.629195e-01 4.459153e-01 5000.0 1.781418e-01 1.052181e-01
</event>
<event>
4 7 1.0 5000.0 7.905138e-03 7.739137e-02
21 -1 0 0 103 101  0.000000e+00  0.000000e+00  2.364309e+03  2.364309e+03 0.0 0.0 9.0
 2 -1 0 0 101   0  0.000000e+00  0.000000e+00 -2.635584e+03  2.635584e+03 0.0 0.0 9.0
 2  1 1 2 103   0 -1.973734e+03 -1.491355e+03  1.988729e+02  2.481797e+03 0.0022 0.0 9.0
22  1 1 2   0   0  1.973734e+03  1.491355e+03 -4.701475e+02  2.518095e+03 0.0 0.0 9.0
#pdf 21 2 3.637398e-01 4.054744e-01 5000.0 1.647530e-02 9.780574e-03
</event>
<event>
4 7 1.0 5000.0 7.905138e-03 7.739137e-02
21 -1 0 0 103 101  0.000000e+00  0.000000e+00  2.157573e+03  2.157573e+03 0.0 0.0 9.0
 2 -1 0 0 101   0  0.000000e+00  0.000000e+00 -2.942887e+03  2.942887e+03 0.0 0.0 9.0
 2  1 1 2 103   0 -7.557240e+01 -2.426287e+03  2.914544e+02  2.444898e+03 0.0022 0.0 9.0
22  1 1 2   0   0  7.557240e+01  2.426287e+03 -1.076769e+03  2.655562e+03 0.0 0.0 9.0
#pdf 21 2 3.319343e-01 4.527518e-01 5000.0 2.436195e-02 5.323519e-03
</event>
<event>
4 7 1.0 5000.0 7.905138e-03 7.739137e-02
21 -1 0 0 103 101  0.000000e+00  0.000000e+00  2.003206e+03  2.003206e+03 0.0 0.0 9.0
 2 -1 0 0 101   0  0.000000e+00  0.000000e+00 -3.027018e+03  3.027018e+03 0.0 0.0 9.0
22  1 1 2   0   0  1.352200e+03 -7.136529e+02  1.459647e+03  2.113838e+03 0.0 0.0 9.0
 2  1 1 2 103   0 -1.352200e+03  7.136529e+02 -2.483458e+03  2.916386e+03 0.0022 0.0 9.0
#pdf 21 2 3.081856e-01 4.656951e-01 5000.0 3.261716e-02 4.484040e-03
</event>
<event>
4 7 1.0 5000.0 7.905138e-03 7.739137e-02
 2 -1 0 0 101   0  0.000000e+00  0.000000e+00  2.065115e+03  2.065115e+03 0.0 0.0 9.0
21 -1 0 0 103 101  0.000000e+00  0.000000e+00 -2.975089e+03  2.975089e+03 0.0 0.0 9.0
22  1 1 2   0   0 -1.700196e+03  8.254257e+02  1.175524e+03  2.225725e+03 0.0 0.0 9.0
 2  1 1 2 103   0  1.700196e+03 -8.254257e+02 -2.085497e+03  2.814480e+03 0.0022 0.0 9.0
#pdf 2 21 3.177101e-01 4.577060e-01 5000.0 2.279276e-01 9.681783e-02
</event>
<event>
4 7 1.0 5000.0 7.905138e-03 7.739137e-02
 2 -1 0 0 101   0  0.000000e+00  0.000000e+00  2.478653e+03  2.478653e+03 0.0 0.0 9.0
21 -1 0 0 103 101  0.000000e+00  0.000000e+00 -2.507380e+03  2.507380e+03 0.0 0.0 9.0
 2  1 1 2 103   0  3.557099e+02 -3.530810e+02  2.427752e+03  2.478946e+03 0.0022 0.0 9.0
22  1 1 2   0   0 -3.557099e+02  3.530810e+02 -2.456479e+03  2.507087e+03 0.0 0.0 9.0
#pdf 2 21 3.813312e-01 3.857508e-01 5000.0 1.598817e-01 1.556749e-01
</event>
<event>
4 7 1.0 5000.0 7.905138e-03 7.739137e-02
 2 -1 0 0 101   0  0.000000e+00  0.000000e+00  2.281506e+03  2.281506e+03 0.0 0.0 9.0
21 -1 0 0 103 101  0.000000e+00  0.000000e+00 -2.799060e+03  2.799060e+03 0.0 0.0 9.0
 2  1 1 2 103   0 -2.239307e+03  4.259520e+02 -1.355417e+03  2.651997e+03 0.0022 0.0 9.0
22  1 1 2   0   0  2.239307e+03 -4.259520e+02  8.378625e+02  2.428569e+03 0.0 0.0 9.0
#pdf 2 21 3.510009e-01 4.306246e-01 5000.0 1.905996e-01 1.168420e-01
</event>
<event>
4 7 1.0 5000.0 7.905138e-03 7.739137e-02
21 -1 0 0 103 101  0.000000e+00  0.000000e+00  2.639895e+03  2.639895e+03 0.0 0.0 9.0
 2 -1 0 0 101   0  0.000000e+00  0.000000e+00 -2.371931e+03  2.371931e+03 0.0 0.0 9.0
22  1 1 2   0   0 -1.518399e+03  7.589040e+02  1.975142e+03  2.604353e+03 0.0 0.0 9.0
 2  1 1 2 103   0  1.518399e+03 -7.589040e+02 -1.707178e+03  2.407473e+03 0.0022 0.0 9.0
#pdf 21 2 4.061377e-01 3.649125e-01 5000.0 9.698741e-03 1.623827e-02
</event>
<event>
4 7 1.0 5000.0 7.905138e-03 7.739137e-02
21 -1 0 0 103 101  0.000000e+00  0.000000e+00  2.434085e+03  2.434085e+03 0.0 0.0 9.0
 2 -1 0 0 101   0  0.000000e+00  0.000000e+00 -2.546223e+03  2.546223e+03 0.0 0.0 9.0
22  1 1 2   0   0 -2.336194e+03 -1.399710e+01  8.042209e+02  2.470784e+03 0.0 0.0 9.0
 2  1 1 2 103   0  2.336194e+03  1.399710e+01 -9.163582e+02  2.509524e+03 0.0022 0.0 9.0
#pdf 21 2 3.744747e-01 3.917266e-01 5000.0 1.442644e-02 1.162807e-02
</event>
<event>
4 7 1.0 5000.0 7.905138e-03 7.739137e-02
21 -1 0 0 103 101  0.000000e+00  0.000000e+00  1.960307e+03  1.960307e+03 0.0 0.0 9.0
 2 -1 0 0 101   0  0.000000e+00  0.000000e+00 -3.132141e+03  3.132141e+03 0.0 0.0 9.0
 2  1 1 2 103   0 -4.060678e+02 -1.015773e+03  1.698740e+03  2.020496e+03 0.0022 0.0 9.0
22  1 1 2   0   0  4.060678e+02  1.015773e+03 -2.870574e+03  3.071951e+03 0.0 0.0 9.0
#pdf 21 2 3.015856e-01 4.818678e-01 5000.0 3.533253e-02 3.609689e-03
</event>
<event>
4 7 1.0 5000.0 7.905138e-03 7.739137e-02
 2 -1 0 0 101   0  0.000000e+00  0.000000e+00  3.727491e+03  3.727491e+03 0.0 0.0 9.0
21 -1 0 0 103 101  0.000000e+00  0.000000e+00 -1.661963e+03  1.661963e+03 0.0 0.0 9.0
 2  1 1 2 103   0  9.599374e+02  6.819515e+02 -1.341323e+03  1.784849e+03 0.0022 0.0 9.0
22  1 1 2   0   0 -9.599374e+02 -6.819515e+02  3.406851e+03  3.604604e+03 0.0 0.0 9.0
#pdf 2 21 5.734601e-01 2.556866e-01 5000.0 3.738956e-02 3.060071e-01
</event>
<event>
4 7 1.0 5000.0 7.905138e-03 7.739137e-02
21 -1 0 0 103 101  0.000000e+00  0.000000e+00  3.667362e+03  3.667362e+03 0.0 0.0 9.0
 2 -1 0 0 101   0  0.000000e+00  0.000000e+00 -1.754996e+03  1.754996e+03 0.0 0.0 9.0
22  1 1 2   0   0  2.241562e+03  7.891180e+02  6.990926e+00  2.376417e+03 0.0 0.0 9.0
 2  1 1 2 103   0 -2.241562e+03 -7.891180e+02  1.905375e+03  3.045942e+03 0.0022 0.0 9.0
#pdf 21 2 5.642096e-01 2.699994e-01 5000.0 1.119946e-03 5.204586e-02
</event>
<event>
4 7 1.0 5000.0 7.905138e-03 7.739137e-02
 2 -1 0 0 101   0  0.000000e+00  0.000000e+00  3.126134e+03  3.126134e+03 0.0 0.0 9.0
21 -1 0 0 103 101  0.000000e+00  0.000000e+00 -2.092254e+03  2.092254e+03 0.0 0.0 9.0
 2  1 1 2 103   0  4.263594e+02  2.471366e+03  1.028308e+03  2.710507e+03 0.0022 0.0 9.0
22  1 1 2   0   0 -4.263594e+02 -2.471366e+03  5.572095e+00  2.507880e+03 0.0 0.0 9.0
#pdf 2 21 4.809436e-01 3.218852e-01 5000.0 8.161462e-02 2.230529e-01
</event>
<event>
4 7 1.0 5000.0 7.905138e-03 7.739137e-02
21 -1 0 0 103 101  0.000000e+00  0.000000e+00  3.575621e+03  3.575621e+03 0.0 0.0 9.0
 2 -1 0 0 101   0  0.000000e+00  0.000000e+00 -1.730319e+03  1.730319e+03 0.0 0.0 9.0
22  1 1 2   0   0 -2.486793e+03 -5.083547e+01  9.392669e+02  2.658749e+03 0.0 0.0 9.0
 2  1 1 2 103   0  2.486793e+03  5.083547e+01  9.060345e+02  2.647191e+03 0.0022 0.0 9.0
#pdf 21 2 5.500955e-01 2.662029e-01 5000.0 1.379685e-03 5.453855e-02
</event>
<event>
4 7 1.0 5000.0 7.905138e-03 7.739137e-02
 2 -1 0 0 101   0  0.000000e+00  0.000000e+00  2.633750e+03  2.633750e+03 0.0 0.0 9.0
21 -1 0 0 103 101  0.000000e+00  0.000000e+00 -2.402523e+03  2.402523e+03 0.0 0.0 9.0
22  1 1 2   0   0 -1.469947e+03  1.104737e+03 -1.602723e+03  2.439243e+03 0.0 0.0 9.0
 2  1 1 2 103   0  1.469947e+03 -1.104737e+03  1.833951e+03  2.597029e+03 0.0022 0.0 9.0
#pdf 2 21 4.051923e-01 3.696189e-01 5000.0 1.379761e-01 1.713484e-01
</event>
<event>
4 7 1.0 5000.0 7.905138e-03 7.739137e-02
 2 -1 0 0 101   0  0.000000e+00  0.000000e+00  2.323706e+03  2.323706e+03 0.0 0.0 9.0
21 -1 0 0 103 101  0.000000e+00  0.000000e+00 -2.517956e+03  2.517956e+03 0.0 0.0 9.0
22  1 1 2   0   0 -1.838253e+03  1.559123e+03  1.054074e+02  2.412705e+03 0.0 0.0 9.0
 2  1 1 2 103   0  1.838253e+03 -1.559123e+03 -2.996581e+02  2.428957e+03 0.0022 0.0 9.0
#pdf 2 21 3.574932e-01 3.873779e-01 5000.0 1.837532e-01 1.541435e-01
</event>
<event>
4 7 1.0 5000.0 7.905138e-03 7.739137e-02
 2 -1 0 0 101   0  0.000000e+00  0.000000e+00  2.626450e+03  2.626450e+03 0.0 0.0 9.0
21 -1 0 0 103 101  0.000000e+00  0.000000e+00 -2.425141e+03  2.425141e+03 0.0 0.0 9.0
22  1 1 2   0   0  2.384816e+03  5.409188e+02  7.253059e+02  2.550688e+03 0.0 0.0 9.0
 2  1 1 2 103   0 -2.384816e+03 -5.409188e+02 -5.239972e+02  2.500903e+03 0.0022 0.0 9.0
#pdf 2 21 4.040692e-01 3.730987e-01 5000.0 1.389628e-01 1.678905e-01
</event>
<event>
4 7 1.0 5000.0 7.905138e-03 7.739137e-02
 2 -1 0 0 101   0  0.000000e+00  0.000000e+00  2.884514e+03  2.884514e+03 0.0 0.0 9.0
21 -1 0 0 103 101  0.000000e+00  0.000000e+00 -1.638397e+03  1.638397e+03 0.0 0.0 9.0
22  1 1 2   0   0 -1.136338e+03 -1.362749e+03  1.929665e+03  2.621442e+03 0.0 0.0 9.0
 2  1 1 2 103   0  1.136338e+03  1.362749e+03 -6.835477e+02  1.901470e+03 0.0022 0.0 9.0
#pdf 2 21 4.437714e-01 2.520611e-01 5000.0 1.068084e-01 3.108360e-01
</event>
<event>
4 7 1.0 5000.0 7.905138e-03 7.739137e-02
21 -1 0 0 103 101  0.000000e+00  0.000000e+00  1.330010e+03  1.330010e+03 0.0 0.0 9.0
 2 -1 0 0 101   0  0.000000e+00  0.000000e+00 -4.568093e+03  4.568093e+03 0.0 0.0 9.0
22  1 1 2   0   0 -2.045220e+03 -7.056459e+02 -3.032020e+03  3.724783e+03 0.0 0.0 9.0
 2  1 1 2 103   0  2.045220e+03  7.056459e+02 -2.060621e+02  2.173320e+03 0.0022 0.0 9.0
#pdf 21 2 2.046170e-01 7.027835e-01 5000.0 1.184265e-01 1.022819e-04
</event>
<event>
4 7 1.0 5000.0 7.905138e-03 7.739137e-02
21 -1 0 0 103 101  0.000000e+00  0.000000e+00  2.899146e+03  2.899146e+03 0.0 0.0 9.0
 2 -1 0 0 101   0  0.000000e+00  0.000000e+00 -2.241783e+03  2.241783e+03 0.0 0.0 9.0
 2  1 1 2 103   0 -2.070690e+03  1.286895e+03 -4.227379e+02  2.474382e+03 0.0022 0.0 9.0
22  1 1 2   0   0  2.070690e+03 -1.286895e+03  1.080101e+03  2.666547e+03 0.0 0.0 9.0
#pdf 21 2 4.460224e-01 3.448897e-01 5000.0 5.807732e-03 2.078233e-02
</event>
<event>
4 7 1.0 5000.0 7.905138e-03 7.739137e-02
21 -1 0 0 103 101  0.000000e+00  0.000000e+00  1.703179e+03  1.703179e+03 0.0 0.0 9.0
 2 -1 0 0 101   0  0.000000e+00  0.000000e+00 -3.634713e+03  3.634713e+03 0.0 0.0 9.0
22  1 1 2   0   0 -2.193383e+03  2.776347e+02  2.584912e+02  2.225944e+03 0.0 0.0 9.0
 2  1 1 2 103   0  2.193383e+03 -2.776347e+02 -2.190025e+03  3.111948e+03 0.0022 0.0 9.0
#pdf 21 2 2.620276e-01 5.591866e-01 5000.0 5.743439e-02 1.207841e-03
</event>
<event>
4 7 1.0 5000.0 7.905138e-03 7.739137e-02
21 -1 0 0 103 101  0.000000e+00  0.000000e+00  2.380207e+03  2.380207e+03 0.0 0.0 9.0
 2 -1 0 0 101   0  0.000000e+00  0.000000e+00 -2.627234e+03  2.627234e+03 0.0 0.0 9.0
 2  1 1 2 103   0 -1.402411e+03 -1.988004e+03  4.555033e+02  2.475157e+03 0.0022 0.0 9.0
22  1 1 2   0   0  1.402411e+03  1.988004e+03 -7.025300e+02  2.532285e+03 0.0 0.0 9.0
#pdf 21 2 3.661857e-01 4.041898e-01 5000.0 1.598296e-02 9.940764e-03
</event>
<event>
4 7 1.0 5000.0 7.905138e-03 7.739137e-02
 2 -1 0 0 101   0  0.000000e+00  0.000000e+00  2.521926e+03  2.521926e+03 0.0 0.0 9.0
21 -1 0 0 103 101  0.000000e+00  0.000000e+00 -2.525016e+03  2.525016e+03 0.0 0.0 9.0
22  1 1 2   0   0 -2.281180e+03  2.704454e+02 -1.046044e+03  2.524110e+03 0.0 0.0 9.0
 2  1 1 2 103   0  2.281180e+03 -2.704454e+02  1.042954e+03  2.522831e+03 0.0022 0.0 9.0
#pdf 2 21 3.879886e-01 3.884640e-01 5000.0 1.535713e-01 1.531268e-01
</event>
<event>
4 7 1.0 5000.0 7.905138e-03 7.739137e-02
 2 -1 0 0 101   0  0.000000e+00  0.000000e+00  3.513591e+03  3.513591e+03 0.0 0.0 9.0
21 -1 0 0 103 101  0.000000e+00  0.000000e+00 -1.790192e+03  1.790192e+03 0.0 0.0 9.0
22  1 1 2   0   0  1.501275e+02  1.062325e+03  3.258692e+03  3.430764e+03 0.0 0.0 9.0
 2  1 1 2 103   0 -1.501275e+02 -1.062325e+03 -1.535293e+03  1.873018e+03 0.0022 0.0 9.0
#pdf 2 21 5.405524e-01 2.754141e-01 5000.0 5.036141e-02 2.801638e-01
</event>
<event>
4 7 1.0 5000.0 7.905138e-03 7.739137e-02
21 -1 0 0 103 101  0.000000e+00  0.000000e+00  1.765850e+03  1.765850e+03 0.0 0.0 9.0
 2 -1 0 0 101   0  0.000000e+00  0.000000e+00 -3.406505e+03  3.406505e+03 0.0 0.0 9.0
 2  1 1 2 103   0  1.860345e+03 -1.244769e+03 -1.877434e+03  2.921489e+03 0.0022 0.0 9.0
22  1 1 2   0   0 -1.860345e+03  1.244769e+03  2.367789e+02  2.250866e+03 0.0 0.0 9.0
#pdf 21 2 2.716692e-01 5.240777e-01 5000.0 5.098818e-02 2.012311e-03
</event>
<event>
4 7 1.0 5000.0 7.905138e-03 7.739137e-02
21 -1 0 0 103 101  0.000000e+00  0.000000e+00  1.600979e+03  1.600979e+03 0.0 0.0 9.0
 2 -1 0 0 101   0  0.000000e+00  0.000000e+00 -4.001427e+03  4.001427e+03 0.0 0.0 9.0
 2  1 1 2 103   0 -2.157101e+03  9.226306e+02 -1.491935e+02  2.350871e+03 0.0022 0.0 9.0
22  1 1 2   0   0  2.157101e+03 -9.226306e+02 -2.251255e+03  3.251536e+03 0.0 0.0 9.0
#pdf 21 2 2.463044e-01 6.156042e-01 5000.0 6.980814e-02 4.982577e-04
</event>
<event>
4 7 1.0 5000.0 7.905138e-03 7.739137e-02
21 -1 0 0 103 101  0.000000e+00  0.000000e+00  2.104762e+03  2.104762e+03 0.0 0.0 9.0
 2 -1 0 0 101   0  0.000000e+00  0.000000e+00 -2.912426e+03  2.912426e+03 0.0 0.0 9.0
 2  1 1 2 103   0 -7.946793e+02 -1.509834e+03 -2.221656e+03  2.801226e+03 0.0022 0.0 9.0
22  1 1 2   0   0  7.946793e+02  1.509834e+03  1.413992e+03  2.215962e+03 0.0 0.0 9.0
#pdf 21 2 3.238095e-01 4.480656e-01 5000.0 2.690855e-02 5.655573e-03
</event>
<event>
4 7 1.0 5000.0 7.905138e-03 7.739137e-02
 2 -1 0 0 101   0  0.000000e+00  0.000000e+00  2.170378e+03  2.170378e+03 0.0 0.0 9.0
21 -1 0 0 103 101  0.000000e+00  0.000000e+00 -3.249827e+03  3.249827e+03 0.0 0.0 9.0
 2  1 1 2 103   0 -1.847243e+03  1.764094e+03 -1.281930e+03  2.857915e+03 0.0022 0.0 9.0
22  1 1 2   0   0  1.847243e+03 -1.764094e+03  2.024807e+02  2.562290e+03 0.0 0.0 9.0
#pdf 2 21 3.339043e-01 4.999734e-01 5000.0 2.093137e-01 7.046925e-02
</event>
<event>
4 7 1.0 5000.0 7.905138e-03 7.739137e-02
21 -1 0 0 103 101  0.000000e+00  0.000000e+00  3.218817e+03  3.218817e+03 0.0 0.0 9.0
 2 -1 0 0 101   0  0.000000e+00  0.000000e+00 -1.922228e+03  1.922228e+03 0.0 0.0 9.0
 2  1 1 2 103   0  1.934749e+03 -1.341866e+03  1.477239e+03  2.779585e+03 0.0022 0.0 9.0
22  1 1 2   0   0 -1.934749e+03  1.341866e+03 -1.806500e+02  2.361460e+03 0.0 0.0 9.0
#pdf 21 2 4.952026e-01 2.957274e-01 5000.0 3.011022e-03 3.799115e-02
</event>
<event>
4 7 1.0 5000.0 7.905138e-03 7.739137e-02
 2 -1 0 0 101   0  0.000000e+00  0.000000e+00  2.347283e+03  2.347283e+03 0.0 0.0 9.0
21 -1 0 0 103 101  0.000000e+00  0.000000e+00 -2.544753e+03  2.544753e+03 0.0 0.0 9.0
 2  1 1 2 103   0 -5.370927e+01 -1.378888e+03 -2.117566e+03  2.527509e+03 0.0022 0.0 9.0
22  1 1 2   0   0  5.370927e+01  1.378888e+03  1.920096e+03  2.364526e+03 0.0 0.0 9.0
#pdf 2 21 3.611204e-01 3.915004e-01 5000.0 1.799913e-01 1.503075e-01
</event>
<event>
4 7 1.0 5000.0 7.905138e-03 7.739137e-02
21 -1 0 0 103 101  0.000000e+00  0.000000e+00  3.315711e+03  3.315711e+03 0.0 0.0 9.0
 2 -1 0 0 101   0  0.000000e+00  0.000000e+00 -1.910000e+03  1.910000e+03 0.0 0.0 9.0
22  1 1 2   0   0  1.338013e+03  8.645528e+02  2.725558e+03  3.156960e+03 0.0 0.0 9.0
 2  1 1 2 103   0 -1.338013e+03 -8.645528e+02 -1.319847e+03  2.068750e+03 0.0022 0.0 9.0
#pdf 21 2 5.101094e-01 2.938461e-01 5000.0 2.449710e-03 3.887905e-02
</event>
<event>
4 7 1.0 5000.0 7.905138e-03 7.739137e-02
21 -1 0 0 103 101  0.000000e+00  0.000000e+00  2.027859e+03  2.027859e+03 0.0 0.0 9.0
 2 -1 0 0 101   0  0.000000e+00  0.000000e+00 -3.067053e+03  3.067053e+03 0.0 0.0 9.0
22  1 1 2   0   0 -1.608191e+03 -1.895688e+03 -3.162152e+02  2.505973e+03 0.0 0.0 9.0
 2  1 1 2 103   0  1.608191e+03  1.895688e+03 -7.229782e+02  2.588939e+03 0.0022 0.0 9.0
#pdf 21 2 3.119784e-01 4.718543e-01 5000.0 3.112459e-02 4.131263e-03
</event>
<event>
4 7 1.0 5000.0 7.905138e-03 7.739137e-02
21 -1 0 0 103 101  0.000000e+00  0.000000e+00  2.059005e+03  2.059005e+03 0.0 0.0 9.0
 2 -1 0 0 101   0  0.000000e+00  0.000000e+00 -3.370042e+03  3.370042e+03 0.0 0.0 9.0
 2  1 1 2 103   0  1.236518e+03 -1.010580e+01 -3.052364e+03  3.293327e+03 0.0022 0.0 9.0
22  1 1 2   0   0 -1.236518e+03  1.010580e+01  1.741327e+03  2.135720e+03 0.0 0.0 9.0
#pdf 21 2 3.167700e-01 5.184679e-01 5000.0 2.933319e-02 2.178369e-03
</event>
<event>
4 7 1.0 5000.0 7.905138e-03 7.739137e-02
 2 -1 0 0 101   0  0.000000e+00  0.000000e+00  3.320272e+03  3.320272e+03 0.0 0.0 9.0
21 -1 0 0 103 101  0.000000e+00  0.000000e+00 -1.897682e+03  1.897682e+03 0.0 0.0 9.0
22  1 1 2   0   0 -6.805936e+02  7.611520e+02 -1.672082e+03  1.959188e+03 0.0 0.0 9.0
 2  1 1 2 103   0  6.805936e+02 -7.611520e+02  3.094672e+03  3.258766e+03 0.0022 0.0 9.0
#pdf 2 21 5.108111e-01 2.919511e-01 5000.0 6.462550e-02 2.591518e-01
</event>
<event>
4 7 1.0 5000.0 7.905138e-03 7.739137e-02
21 -1 0 0 103 101  0.000000e+00  0.000000e+00  2.240188e+03  2.240188e+03 0.0 0.0 9.0
 2 -1 0 0 101   0  0.000000e+00  0.000000e+00 -2.739375e+03  2.739375e+03 0.0 0.0 9.0
 2  1 1 2 103   0  6.248696e+02  1.294394e+03  1.778243e+03  2.286496e+03 0.0022 0.0 9.0
22  1 1 2   0   0 -6.248696e+02 -1.294394e+03 -2.277430e+03  2.693066e+03 0.0 0.0 9.0
#pdf 21 2 3.446442e-01 4.214422e-01 5000.0 2.084479e-02 7.981974e-03
</event>
<event>
4 7 1.0 5000.0 7.905138e-03 7.739137e-02
 2 -1 0 0 101   0  0.000000e+00  0.000000e+00  1.526248e+03  1.526248e+03 0.0 0.0 9.0
21 -1 0 0 103 101  0.000000e+00  0.000000e+00 -4.065432e+03  4.065432e+03 0.0 0.0 9.0
22  1 1 2   0   0 -8.470076e+02  1.863048e+02 -3.890508e+03  3.985999e+03 0.0 0.0 9.0
 2  1 1 2 103   0  8.470076e+02 -1.863048e+02  1.351325e+03  1.605681e+03 0.0022 0.0 9.0
#pdf 2 21 2.348074e-01 6.254510e-01 5000.0 3.341408e-01 2.211824e-02
</event>
<event>
4 7 1.0 5000.0 7.905138e-03 7.739137e-02
21 -1 0 0 103 101  0.000000e+00  0.000000e+00  1.417582e+03  1.417582e+03 0.0 0.0 9.0
 2 -1 0 0 101   0  0.000000e+00  0.000000e+00 -4.620224e+03  4.620224e+03 0.0 0.0 9.0
22  1 1 2   0   0 -1.391662e+03 -1.322464e+03  3.949670e+02  1.960009e+03 0.0 0.0 9.0
 2  1 1 2 103   0  1.391662e+03  1.322464e+03 -3.597609e+03  4.077797e+03 0.0022 0.0 9.0
#pdf 21 2 2.180895e-01 7.108036e-01 5000.0 9.968677e-02 8.691260e-05
</event>
<event>
4 7 1.0 5000.0 7.905138e-03 7.739137e-02
 2 -1 0 0 101   0  0.000000e+00  0.000000e+00  2.456684e+03  2.456684e+03 0.0 0.0 9.0
21 -1 0 0 103 101  0.000000e+00  0.000000e+00 -2.481435e+03  2.481435e+03 0.0 0.0 9.0
 2  1 1 2 103   0 -1.834080e+03  1.472917e+03 -7.625634e+02  2.472819e+03 0.0022 0.0 9.0
22  1 1 2   0   0  1.834080e+03 -1.472917e+03  7.378125e+02  2.465299e+03 0.0 0.0 9.0
#pdf 2 21 3.779513e-01 3.817592e-01 5000.0 1.631437e-01 1.594714e-01
</event>
<event>
4 7 1.0 5000.0 7.905138e-03 7.739137e-02
21 -1 0 0 103 101  0.000000e+00  0.000000e+00  1.888225e+03  1.888225e+03 0.0 0.0 9.0
 2 -1 0 0 101   0  0.000000e+00  0.000000e+00 -3.343475e+03  3.343475e+03 0.0 0.0 9.0
22  1 1 2   0   0 -2.735645e+02  1.221932e+03  1.540243e+03  1.985020e+03 0.0 0.0 9.0
 2  1 1 2 103   0  2.735645e+02 -1.221932e+03 -2.995493e+03  3.246680e+03 0.0022 0.0 9.0
#pdf 21 2 2.904962e-01 5.143808e-01 5000.0 4.049522e-02 2.307786e-03
</event>
<event>
4 7 1.0 5000.0 7.905138e-03 7.739137e-02
21 -1 0 0 103 101  0.000000e+00  0.000000e+00  3.429198e+03  3.429198e+03 0.0 0.0 9.0
 2 -1 0 0 101   0  0.000000e+00  0.000000e+00 -1.808668e+03  1.808668e+03 0.0 0.0 9.0
22  1 1 2   0   0  1.804308e+02 -2.472888e+03  5.646606e+02  2.542946e+03 0.0 0.0 9.0
 2  1 1 2 103   0 -1.804308e+02  2.472888e+03  1.055869e+03  2.694920e+03 0.0022 0.0 9.0
#pdf 21 2 5.275689e-01 2.782566e-01 5000.0 1.915271e-03 4.702331e-02
</event>
<event>
4 7 1.0 5000.0 7.905138e-03 7.739137e-02
 2 -1 0 0 101   0  0.000000e+00  0.000000e+00  1.509820e+03  1.509820e+03 0.0 0.0 9.0
21 -1 0 0 103 101  0.000000e+00  0.000000e+00 -3.995995e+03  3.995995e+03 0.0 0.0 9.0
 2  1 1 2 103   0  7.455369e+02 -4.280876e+02 -3.821870e+03  3.917368e+03 0.0022 0.0 9.0
22  1 1 2   0   0 -7.455369e+02  4.280876e+02  1.335694e+03  1.588447e+03 0.0 0.0 9.0
#pdf 2 21 2.322799e-01 6.147685e-01 5000.0 3.376032e-01 2.479039e-02
</event>
<event>
4 7 1.0 5000.0 7.905138e-03 7.739137e-02
 2 -1 0 0 101   0  0.000000e+00  0.000000e+00  1.872499e+03  1.872499e+03 0.0 0.0 9.0
21 -1 0 0 103 101  0.000000e+00  0.000000e+00 -3.340128e+03  3.340128e+03 0.0 0.0 9.0
 2  1 1 2 103   0  2.071849e+03 -3.048662e+02  6.908925e+02  2.205183e+03 0.0022 0.0 9.0
22  1 1 2   0   0 -2.071849e+03  3.048662e+02 -2.158522e+03  3.007444e+03 0.0 0.0 9.0
#pdf 2 21 2.880767e-01 5.138658e-01 5000.0 2.640195e-01 6.304233e-02
</event>
<event>
4 7 1.0 5000.0 7.905138e-03 7.739137e-02
 2 -1 0 0 101   0  0.000000e+00  0.000000e+00  1.921135e+03  1.921135e+03 0.0 0.0 9.0
21 -1 0 0 103 101  0.000000e+00  0.000000e+00 -3.308642e+03  3.308642e+03 0.0 0.0 9.0
 2  1 1 2 103   0 -4.987679e+02  1.269525e+03  1.505407e+03  2.031431e+03 0.0022 0.0 9.0
22  1 1 2   0   0  4.987679e+02 -1.269525e+03 -2.892914e+03  3.198345e+03 0.0 0.0 9.0
#pdf 2 21 2.955593e-01 5.090218e-01 5000.0 2.546611e-01 6.556584e-02
</event>
<event>
4 7 1.0 5000.0 7.905138e-03 7.739137e-02
21 -1 0 0 103 101  0.000000e+00  0.000000e+00  1.693532e+03  1.693532e+03 0.0 0.0 9.0
 2 -1 0 0 101   0  0.000000e+00  0.000000e+00 -3.469623e+03  3.469623e+03 0.0 0.0 9.0
22  1 1 2   0   0 -1.637197e+03  1.649862e+02 -2.783700e+03  3.233670e+03 0.0 0.0 9.0
 2  1 1 2 103   0  1.637197e+03 -1.649862e+02  1.007609e+03  1.929485e+03 0.0022 0.0 9.0
#pdf 21 2 2.605434e-01 5.337881e-01 5000.0 5.850873e-02 1.751749e-03
</event>
<event>
4 7 1.0 5000.0 7.905138e-03 7.739137e-02
 2 -1 0 0 101   0  0.000000e+00  0.000000e+00  1.469907e+03  1.469907e+03 0.0 0.0 9.0
21 -1 0 0 103 101  0.000000e+00  0.000000e+00 -4.231285e+03  4.231285e+03 0.0 0.0 9.0
 2  1 1 2 103   0  3.404607e+01 -1.567616e+03 -3.597390e+03  3.924257e+03 0.0022 0.0 9.0
22  1 1 2   0   0 -3.404607e+01  1.567616e+03  8.360125e+02  1.776934e+03 0.0 0.0 9.0
#pdf 2 21 2.261395e-01 6.509669e-01 5000.0 3.460122e-01 1.660657e-02
</event>
<event>
4 7 1.0 5000.0 7.905138e-03 7.739137e-02
 2 -1 0 0 101   0  0.000000e+00  0.000000e+00  2.390216e+03  2.390216e+03 0.0 0.0 9.0
21 -1 0 0 103 101  0.000000e+00  0.000000e+00 -2.615755e+03  2.615755e+03 0.0 0.0 9.0
 2  1 1 2 103   0 -9.888016e+02  5.734692e+02  2.113366e+03  2.402689e+03 0.0022 0.0 9.0
22  1 1 2   0   0  9.888016e+02 -5.734692e+02 -2.338906e+03  2.603282e+03 0.0 0.0 9.0
#pdf 2 21 3.677255e-01 4.024238e-01 5000.0 1.732533e-01 1.404167e-01
</event>
<event>
4 7 1.0 5000.0 7.905138e-03 7.739137e-02
21 -1 0 0 103 101  0.000000e+00  0.000000e+00  3.084396e+03  3.084396e+03 0.0 0.0 9.0
 2 -1 0 0 101   0  0.000000e+00  0.000000e+00 -2.028381e+03  2.028381e+03 0.0 0.0 9.0
 2  1 1 2 103   0  7.996938e+02 -1.104841e+03  2.670913e+03  2.998993e+03 0.0022 0.0 9.0
22  1 1 2   0   0 -7.996938e+02  1.104841e+03 -1.614898e+03  2.113783e+03 0.0 0.0 9.0
#pdf 21 2 4.745225e-01 3.120586e-01 5000.0 3.986214e-03 3.109369e-02
</event>
<event>
4 7 1.0 5000.0 7.905138e-03 7.739137e-02
21 -1 0 0 103 101  0.000000e+00  0.000000e+00  2.603399e+03  2.603399e+03 0.0 0.0 9.0
 2 -1 0 0 101   0  0.000000e+00  0.000000e+00 -2.059257e+03  2.059257e+03 0.0 0.0 9.0
 2  1 1 2 103   0 -9.248504e+02  1.047112e+03 -1.587055e+03  2.114364e+03 0.0022 0.0 9.0
22  1 1 2   0   0  9.248504e+02 -1.047112e+03  2.131197e+03  2.548292e+03 0.0 0.0 9.0
#pdf 21 2 4.005229e-01 3.168088e-01 5000.0 1.041107e-02 2.931918e-02
</event>
<event>
4 7 1.0 5000.0 7.905138e-03 7.739137e-02
21 -1 0 0 103 101  0.000000e+00  0.000000e+00  1.969692e+03  1.969692e+03 0.0 0.0 9.0
 2 -1 0 0 101   0  0.000000e+00  0.000000e+00 -3.829601e+03  3.829601e+03 0.0 0.0 9.0
22  1 1 2   0   0  2.225547e+03 -1.506197e+03 -1.528535e+03  3.091619e+03 0.0 0.0 9.0
 2  1 1 2 103   0 -2.225547e+03  1.506197e+03 -3.313743e+02  2.707674e+03 0.0022 0.0 9.0
#pdf 21 2 3.030296e-01 5.891695e-01 5000.0 3.472833e-02 7.620008e-04
</event>
<event>
4 7 1.0 5000.0 7.905138e-03 7.739137e-02
 2 -1 0 0 101   0  0.000000e+00  0.000000e+00  3.064809e+03  3.064809e+03 0.0 0.0 9.0
21 -1 0 0 103 101  0.000000e+00  0.000000e+00 -2.477953e+03  2.477953e+03 0.0 0.0 9.0
22  1 1 2   0   0  5.222684e+02  8.854204e+02 -2.277921e+03  2.499132e+03 0.0 0.0 9.0
 2  1 1 2 103   0 -5.222684e+02 -8.854204e+02  2.864778e+03  3.043630e+03 0.0022 0.0 9.0
#pdf 2 21 4.715091e-01 3.812235e-01 5000.0 8.757549e-02 1.599851e-01
</event>
<event>
4 7 1.0 5000.0 7.905138e-03 7.739137e-02
21 -1 0 0 103 101  0.000000e+00  0.000000e+00  1.517805e+03  1.517805e+03 0.0 0.0 9.0
 2 -1 0 0 101   0  0.000000e+00  0.000000e+00 -4.107787e+03  4.107787e+03 0.0 0.0 9.0
 2  1 1 2 103   0 -2.466472e+03  3.849831e+02 -1.232025e+03  2.783807e+03 0.0022 0.0 9.0
22  1 1 2   0   0  2.466472e+03 -3.849831e+02 -1.357958e+03  2.841785e+03 0.0 0.0 9.0
#pdf 21 2 2.335084e-01 6.319673e-01 5000.0 8.197433e-02 3.787240e-04
</event>
<event>
4 7 1.0 5000.0 7.905138e-03 7.739137e-02
21 -1 0 0 103 101  0.000000e+00  0.000000e+00  3.491669e+03  3.491669e+03 0.0 0.0 9.0
 2 -1 0 0 101   0  0.000000e+00  0.000000e+00 -1.939386e+03  1.939386e+03 0.0 0.0 9.0
 2  1 1 2 103   0  1.195892e+03 -5.859909e+02  3.109117e+03  3.382330e+03 0.0022 0.0 9.0
22  1 1 2   0   0 -1.195892e+03  5.859909e+02 -1.556834e+03  2.048726e+03 0.0 0.0 9.0
#pdf 21 2 5.371799e-01 2.983671e-01 5000.0 1.666736e-03 3.676259e-02
</event>
<event>
4 7 1.0 5000.0 7.905138e-03 7.739137e-02
21 -1 0 0 103 101  0.000000e+00  0.000000e+00  2.878775e+03  2.878775e+03 0.0 0.0 9.0
 2 -1 0 0 101   0  0.000000e+00  0.000000e+00 -2.151037e+03  2.151037e+03 0.0 0.0 9.0
22  1 1 2   0   0 -2.285422e+02  4.592912e+02 -2.097014e+03  2.158854e+03 0.0 0.0 9.0
 2  1 1 2 103   0  2.285422e+02 -4.592912e+02  2.824752e+03  2.870958e+03 0.0022 0.0 9.0
#pdf 21 2 4.428884e-01 3.309288e-01 5000.0 6.056579e-03 2.466407e-02
</event>
<event>
4 7 1.0 5000.0 7.905138e-03 7.739137e-02
 2 -1 0 0 101   0  0.000000e+00  0.000000e+00  1.472798e+03  1.472798e+03 0.0 0.0 9.0
21 -1 0 0 103 101  0.000000e+00  0.000000e+00 -3.876184e+03  3.876184e+03 0.0 0.0 9.0
 2  1 1 2 103   0 -2.242100e+03  5.880309e+01 -2.797605e+02  2.260252e+03 0.0022 0.0 9.0
22  1 1 2   0   0  2.242100e+03 -5.880309e+01 -2.123625e+03  3.088730e+03 0.0 0.0 9.0
#pdf 2 21 2.265843e-01 5.963359e-01 5000.0 3.454043e-01 2.994381e-02
</event>
<event>
4 7 1.0 5000.0 7.905138e-03 7.739137e-02
 2 -1 0 0 101   0  0.000000e+00  0.000000e+00  1.491751e+03  1.491751e+03 0.0 0.0 9.0
21 -1 0 0 103 101  0.000000e+00  0.000000e+00 -3.712957e+03  3.712957e+03 0.0 0.0 9.0
22  1 1 2   0   0  1.083303e+03  1.229949e+03 -2.978144e+03  3.399362e+03 0.0 0.0 9.0
 2  1 1 2 103   0 -1.083303e+03 -1.229949e+03  7.569382e+02  1.805346e+03 0.0022 0.0 9.0
#pdf 2 21 2.295002e-01 5.712241e-01 5000.0 3.414142e-01 3.818449e-02
</event>
<event>
4 7 1.0 5000.0 7.905138e-03 7.739137e-02
 2 -1 0 0 101   0  0.000000e+00  0.000000e+00  1.687397e+03  1.687397e+03 0.0 0.0 9.0
21 -1 0 0 103 101  0.000000e+00  0.000000e+00 -2.911687e+03  2.911687e+03 0.0 0.0 9.0
22  1 1 2   0   0  2.154520e+03  4.239050e+02 -2.983029e+02  2.215996e+03 0.0 0.0 9.0
 2  1 1 2 103   0 -2.154520e+03 -4.239050e+02 -9.259876e+02  2.383088e+03 0.0022 0.0 9.0
#pdf 2 21 2.595995e-01 4.479518e-01 5000.0 3.008316e-01 1.037327e-01
</event>
<event>
4 7 1.0 5000.0 7.905138e-03 7.739137e-02
 2 -1 0 0 101   0  0.000000e+00  0.000000e+00  3.274538e+03  3.274538e+03 0.0 0.0 9.0
21 -1 0 0 103 101  0.000000e+00  0.000000e+00 -1.922631e+03  1.922631e+03 0.0 0.0 9.0
22  1 1 2   0   0 -9.507318e+02  8.366987e+02 -1.567320e+03  2.015055e+03 0.0 0.0 9.0
 2  1 1 2 103   0  9.507318e+02 -8.366987e+02  2.919227e+03  3.182113e+03 0.0022 0.0 9.0
#pdf 2 21 5.037750e-01 2.957893e-01 5000.0 6.837882e-02 2.543763e-01
</event>
<event>
4 7 1.0 5000.0 7.905138e-03 7.739137e-02
 2 -1 0 0 101   0  0.000000e+00  0.000000e+00  1.724521e+03  1.724521e+03 0.0 0.0 9.0
21 -1 0 0 103 101  0.000000e+00  0.000000e+00 -3.614750e+03  3.614750e+03 0.0 0.0 9.0
22  1 1 2   0   0  2.394394e+03 -4.446362e+02 -1.533579e+03  2.877966e+03 0.0 0.0 9.0
 2  1 1 2 103   0 -2.394394e+03  4.446362e+02 -3.566498e+02  2.461305e+03 0.0022 0.0 9.0
#pdf 2 21 2.653110e-01 5.561154e-01 5000.0 2.933194e-01 4.388836e-02
</event>
<event>
4 7 1.0 5000.0 7.905138e-03 7.739137e-02
 2 -1 0 0 101   0  0.000000e+00  0.000000e+00  4.771776e+03  4.771776e+03 0.0 0.0 9.0
21 -1 0 0 103 101  0.000000e+00  0.000000e+00 -1.357611e+03  1.357611e+03 0.0 0.0 9.0
22  1 1 2   0   0  1.230556e+03  1.665173e+03  3.489441e+03  4.057495e+03 0.0 0.0 9.0
 2  1 1 2 103   0 -1.230556e+03 -1.665173e+03 -7.527631e+01  2.071891e+03 0.0022 0.0 9.0
#pdf 2 21 7.341194e-01 2.088632e-01 5000.0 5.461713e-03 3.697931e-01
</event>
<event>
4 7 1.0 5000.0 7.905138e-03 7.739137e-02
21 -1 0 0 103 101  0.000000e+00  0.000000e+00  2.285949e+03  2.285949e+03 0.0 0.0 9.0
 2 -1 0 0 101   0  0.000000e+00  0.000000e+00 -2.644840e+03  2.644840e+03 0.0 0.0 9.0
 2  1 1 2 103   0  5.429781e+02  1.829558e+03 -1.734008e+03  2.578545e+03 0.0022 0.0 9.0
22  1 1 2   0   0 -5.429781e+02 -1.829558e+03  1.375117e+03  2.352245e+03 0.0 0.0 9.0
#pdf 21 2 3.516845e-01 4.068985e-01 5000.0 1.911773e-02 9.605596e-03
</event>
<event>
4 7 1.0 5000.0 7.905138e-03 7.739137e-02
 2 -1 0 0 101   0  0.000000e+00  0.000000e+00  1.959745e+03  1.959745e+03 0.0 0.0 9.0
21 -1 0 0 103 101  0.000000e+00  0.000000e+00 -3.198681e+03  3.198681e+03 0.0 0.0 9.0
 2  1 1 2 103   0 -1.167785e+03 -6.961072e+02  1.546382e+03  2.059025e+03 0.0022 0.0 9.0
22  1 1 2   0   0  1.167785e+03  6.961072e+02 -2.785319e+03  3.099401e+03 0.0 0.0 9.0
#pdf 2 21 3.014992e-01 4.921048e-01 5000.0 2.473625e-01 7.493908e-02
</event>
<event>
4 7 1.0 5000.0 7.905138e-03 7.739137e-02
 2 -1 0 0 101   0  0.000000e+00  0.000000e+00  2.472253e+03  2.472253e+03 0.0 0.0 9.0
21 -1 0 0 103 101  0.000000e+00  0.000000e+00 -2.483360e+03  2.483360e+03 0.0 0.0 9.0
 2  1 1 2 103   0  1.150076e+03  3.076787e+02  2.167504e+03  2.472936e+03 0.0022 0.0 9.0
22  1 1 2   0   0 -1.150076e+03 -3.076787e+02 -2.178611e+03  2.482677e+03 0.0 0.0 9.0
#pdf 2 21 3.803466e-01 3.820554e-01 5000.0 1.608280e-01 1.591877e-01
</event>
<event>
4 7 1.0 5000.0 7.905138e-03 7.739137e-02
 2 -1 0 0 101   0  0.000000e+00  0.000000e+00  4.337354e+03  4.337354e+03 0.0 0.0 9.0
21 -1 0 0 103 101  0.000000e+00  0.000000e+00 -1.397929e+03  1.397929e+03 0.0 0.0 9.0
22  1 1 2   0   0  1.706883e+03 -5.642919e+02 -4.899151e+02  1.863301e+03 0.0 0.0 9.0
 2  1 1 2 103   0 -1.706883e+03  5.642919e+02  3.429340e+03  3.871982e+03 0.0022 0.0 9.0
#pdf 2 21 6.672853e-01 2.150660e-01 5000.0 1.365591e-02 3.611926e-01
</event>
<event>
4 7 1.0 5000.0 7.905138e-03 7.739137e-02
21 -1 0 0 103 101  0.000000e+00  0.000000e+00  3.153174e+03  3.153174e+03 0.0 0.0 9.0
 2 -1 0 0 101   0  0.000000e+00  0.000000e+00 -1.956108e+03  1.956108e+03 0.0 0.0 9.0
 2  1 1 2 103   0  2.669555e+02  2.343907e+03 -2.000874e+02  2.367530e+03 0.0022 0.0 9.0
22  1 1 2   0   0 -2.669555e+02 -2.343907e+03  1.397154e+03  2.741752e+03 0.0 0.0 9.0
#pdf 21 2 4.851038e-01 3.009397e-01 5000.0 3.454585e-03 3.560424e-02
</event>
<event>
4 7 1.0 5000.0 7.905138e-03 7.739137e-02
 2 -1 0 0 101   0  0.000000e+00  0.000000e+00  3.054711e+03  3.054711e+03 0.0 0.0 9.0
21 -1 0 0 103 101  0.000000e+00  0.000000e+00 -2.047923e+03  2.047923e+03 0.0 0.0 9.0
 2  1 1 2 103   0  1.175140e+03 -1.535187e+03  2.122053e+03  2.870691e+03 0.0022 0.0 9.0
22  1 1 2   0   0 -1.175140e+03  1.535187e+03 -1.115265e+03  2.231943e+03 0.0 0.0 9.0
#pdf 2 21 4.699556e-01 3.150650e-01 5000.0 8.858484e-02 2.310411e-01
</event>
<event>
4 7 1.0 5000.0 7.905138e-03 7.739137e-02
21 -1 0 0 103 101  0.000000e+00  0.000000e+00  3.538173e+03  3.538173e+03 0.0 0.0 9.0
 2 -1 0 0 101   0  0.000000e+00  0.000000e+00 -1.726742e+03  1.726742e+03 0.0 0.0 9.0
 2  1 1 2 103   0  8.496669e+02  1.192816e+03 -1.214925e+03  1.902836e+03 0.0022 0.0 9.0
22  1 1 2   0   0 -8.496669e+02 -1.192816e+03  3.026356e+03  3.362079e+03 0.0 0.0 9.0
#pdf 21 2 5.443344e-01 2.656527e-01 5000.0 1.502567e-03 5.491050e-02
</event>
<event>
4 7 1.0 5000.0 7.905138e-03 7.739137e-02
 2 -1 0 0 101   0  0.000000e+00  0.000000e+00  3.196056e+03  3.196056e+03 0.0 0.0 9.0
21 -1 0 0 103 101  0.000000e+00  0.000000e+00 -1.959769e+03  1.959769e+03 0.0 0.0 9.0
22  1 1 2   0   0 -1.300042e+02 -1.434171e+03 -1.490262e+03  2.072349e+03 0.0 0.0 9.0
 2  1 1 2 103   0  1.300042e+02  1.434171e+03  2.726550e+03  3.083475e+03 0.0022 0.0 9.0
#pdf 2 21 4.917009e-01 3.015029e-01 5000.0 7.517382e-02 2.473580e-01
</event>
<event>
4 7 1.0 5000.0 7.905138e-03 7.739137e-02
21 -1 0 0 103 101  0.000000e+00  0.000000e+00  3.387054e+03  3.387054e+03 0.0 0.0 9.0
 2 -1 0 0 101   0  0.000000e+00  0.000000e+00 -1.803620e+03  1.803620e+03 0.0 0.0 9.0
 2  1 1 2 103   0 -1.410794e+03  1.829037e+03  1.715072e+03  2.877010e+03 0.0022 0.0 9.0
22  1 1 2   0   0  1.410794e+03 -1.829037e+03 -1.316376e+02  2.313665e+03 0.0 0.0 9.0
#pdf 21 2 5.210853e-01 2.774800e-01 5000.0 2.099188e-03 4.747456e-02
</event>
<event>
4 7 1.0 5000.0 7.905138e-03 7.739137e-02
21 -1 0 0 103 101  0.000000e+00  0.000000e+00  4.339424e+03  4.339424e+03 0.0 0.0 9.0
 2 -1 0 0 101   0  0.000000e+00  0.000000e+00 -1.455830e+03  1.455830e+03 0.0 0.0 9.0
 2  1 1 2 103   0 -1.669427e+03 -1.859837e+03  1.750026e+03  3.050995e+03 0.0022 0.0 9.0
22  1 1 2   0   0  1.669427e+03  1.859837e+03  1.133568e+03  2.744259e+03 0.0 0.0 9.0
#pdf 21 2 6.676038e-01 2.239738e-01 5000.0 2.013936e-04 9.245075e-02
</event>
<event>
4 7 1.0 5000.0 7.905138e-03 7.739137e-02
21 -1 0 0 103 101  0.000000e+00  0.000000e+00  3.317063e+03  3.317063e+03 0.0 0.0 9.0
 2 -1 0 0 101   0  0.000000e+00  0.000000e+00 -1.814993e+03  1.814993e+03 0.0 0.0 9.0
 2  1 1 2 103   0  1.054867e+03 -1.948182e+03  1.853985e+03  2.888844e+03 0.0022 0.0 9.0
22  1 1 2   0   0 -1.054867e+03  1.948182e+03 -3.519161e+02  2.243212e+03 0.0 0.0 9.0
#pdf 21 2 5.103173e-01 2.792298e-01 5000.0 2.442628e-03 4.646350e-02
</event>
<event>
4 7 1.0 5000.0 7.905138e-03 7.739137e-02
21 -1 0 0 103 101  0.000000e+00  0.000000e+00  2.062231e+03  2.062231e+03 0.0 0.0 9.0
 2 -1 0 0 101   0  0.000000e+00  0.000000e+00 -3.211729e+03  3.211729e+03 0.0 0.0 9.0
22  1 1 2   0   0 -1.108455e+03  2.179341e+03 -1.397736e+03  2.816356e+03 0.0 0.0 9.0
 2  1 1 2 103   0  1.108455e+03 -2.179341e+03  2.482377e+02  2.457604e+03 0.0022 0.0 9.0
#pdf 21 2 3.172664e-01 4.941122e-01 5000.0 2.915448e-02 3.056286e-03
</event>
<event>
4 7 1.0 5000.0 7.905138e-03 7.739137e-02
21 -1 0 0 103 101  0.000000e+00  0.000000e+00  3.266438e+03  3.266438e+03 0.0 0.0 9.0
 2 -1 0 0 101   0  0.000000e+00  0.000000e+00 -1.927762e+03  1.927762e+03 0.0 0.0 9.0
 2  1 1 2 103   0  1.571988e+03 -1.873277e+03  8.699279e+01  2.447015e+03 0.0022 0.0 9.0
22  1 1 2   0   0 -1.571988e+03  1.873277e+03  1.251684e+03  2.747185e+03 0.0 0.0 9.0
#pdf 21 2 5.025290e-01 2.965787e-01 5000.0 2.721306e-03 3.759301e-02
</event>
<event>
4 7 1.0 5000.0 7.905138e-03 7.739137e-02
21 -1 0 0 103 101  0.000000e+00  0.000000e+00  1.278320e+03  1.278320e+03 0.0 0.0 9.0
 2 -1 0 0 101   0  0.000000e+00  0.000000e+00 -4.797911e+03  4.797911e+03 0.0 0.0 9.0
22  1 1 2   0   0 -1.212171e+03  4.415437e+02  8.335536e+02  1.535946e+03 0.0 0.0 9.0
 2  1 1 2 103   0  1.212171e+03 -4.415437e+02 -4.353145e+03  4.540285e+03 0.0022 0.0 9.0
#pdf 21 2 1.966646e-01 7.381402e-01 5000.0 1.313851e-01 4.824108e-05
</event>
<event>
4 7 1.0 5000.0 7.905138e-03 7.739137e-02
21 -1 0 0 103 101  0.000000e+00  0.000000e+00  2.270493e+03  2.270493e+03 0.0 0.0 9.0
 2 -1 0 0 101   0  0.000000e+00  0.000000e+00 -2.740604e+03  2.740604e+03 0.0 0.0 9.0
22  1 1 2   0   0  6.492093e+02  2.139669e+03  8.756758e+02  2.401346e+03 0.0 0.0 9.0
 2  1 1 2 103   0 -6.492093e+02 -2.139669e+03 -1.345787e+03  2.609751e+03 0.0022 0.0 9.0
#pdf 21 2 3.493066e-01 4.216314e-01 5000.0 1.968712e-02 7.962698e-03
</event>
<event>
4 7 1.0 5000.0 7.905138e-03 7.739137e-02
21 -1 0 0 103 101  0.000000e+00  0.000000e+00  2.155092e+03  2.155092e+03 0.0 0.0 9.0
 2 -1 0 0 101   0  0.000000e+00  0.000000e+00 -2.966473e+03  2.966473e+03 0.0 0.0 9.0
22  1 1 2   0   0  5.279684e+01 -7.677464e+02 -2.844981e+03  2.947226e+03 0.0 0.0 9.0
 2  1 1 2 103   0 -5.279684e+01  7.677464e+02  2.033600e+03  2.174340e+03 0.0022 0.0 9.0
#pdf 21 2 3.315527e-01 4.563805e-01 5000.0 2.447620e-02 5.074376e-03
</event>
<event>
4 7 1.0 5000.0 7.905138e-03 7.739137e-02
21 -1 0 0 103 101  0.000000e+00  0.000000e+00  3.458565e+03  3.458565e+03 0.0 0.0 9.0
 2 -1 0 0 101   0  0.000000e+00  0.000000e+00 -1.821684e+03  1.821684e+03 0.0 0.0 9.0
 2  1 1 2 103   0 -4.545252e+02 -2.440195e+03  1.210968e+03  2.761808e+03 0.0022 0.0 9.0
22  1 1 2   0   0  4.545252e+02  2.440195e+03  4.259133e+02  2.518441e+03 0.0 0.0 9.0
#pdf 21 2 5.320870e-01 2.802591e-01 5000.0 1.795457e-03 4.587810e-02
</event>
<event>
4 7 1.0 5000.0 7.905138e-03 7.739137e-02
21 -1 0 0 103 101  0.000000e+00  0.000000e+00  2.871573e+03  2.871573e+03 0.0 0.0 9.0
 2 -1 0 0 101   0  0.000000e+00  0.000000e+00 -2.185452e+03  2.185452e+03 0.0 0.0 9.0
22  1 1 2   0   0 -2.160214e+03 -6.378326e+01  1.621807e+03  2.702009e+03 0.0 0.0 9.0
 2  1 1 2 103   0  2.160214e+03  6.378326e+01 -9.356863e+02  2.355016e+03 0.0022 0.0 9.0
#pdf 21 2 4.417805e-01 3.362234e-01 5000.0 6.145831e-03 2.311049e-02
</event>
<event>
4 7 1.0 5000.0 7.905138e-03 7.739137e-02
 2 -1 0 0 101   0  0.000000e+00  0.000000e+00  1.728068e+03  1.728068e+03 0.0 0.0 9.0
21 -1 0 0 103 101  0.000000e+00  0.000000e+00 -3.704282e+03  3.704282e+03 0.0 0.0 9.0
22  1 1 2   0   0  1.239056e+03  1.049545e+03 -3.071042e+03  3.473918e+03 0.0 0.0 9.0
 2  1 1 2 103   0 -1.239056e+03 -1.049545e+03  1.094829e+03  1.958432e+03 0.0022 0.0 9.0
#pdf 2 21 2.658566e-01 5.698895e-01 5000.0 2.926039e-01 3.866584e-02
</event>
<event>
4 7 1.0 5000.0 7.905138e-03 7.739137e-02
21 -1 0 0 103 101  0.000000e+00  0.000000e+00  2.120477e+03  2.120477e+03 0.0 0.0 9.0
 2 -1 0 0 101   0  0.000000e+00  0.000000e+00 -2.943676e+03  2.943676e+03 0.0 0.0 9.0
22  1 1 2   0   0 -4.687679e+02 -1.046231e+03  1.838155e+03  2.166370e+03 0.0 0.0 9.0
 2  1 1 2 103   0  4.687679e+02  1.046231e+03 -2.661355e+03  2.897784e+03 0.0022 0.0 9.0
#pdf 21 2 3.262272e-01 4.528733e-01 5000.0 2.612467e-02 5.315051e-03
</event>
<event>
4 7 1.0 5000.0 7.905138e-03 7.739137e-02
 2 -1 0 0 101   0  0.000000e+00  0.000000e+00  2.470961e+03  2.470961e+03 0.0 0.0 9.0
21 -1 0 0 103 101  0.000000e+00  0.000000e+00 -2.512216e+03  2.512216e+03 0.0 0.0 9.0
 2  1 1 2 103   0 -1.396588e+03 -1.623210e+02  2.036330e+03  2.474560e+03 0.0022 0.0 9.0
22  1 1 2   0   0  1.396588e+03  1.623210e+02 -2.077584e+03  2.508617e+03 0.0 0.0 9.0
#pdf 2 21 3.801479e-01 3.864947e-01 5000.0 1.610194e-01 1.549735e-01
</event>
<event>
4 7 1.0 5000.0 7.905138e-03 7.739137e-02
 2 -1 0 0 101   0  0.000000e+00  0.000000e+00  3.203842e+03  3.203842e+03 0.0 0.0 9.0
21 -1 0 0 103 101  0.000000e+00  0.000000e+00 -1.714525e+03  1.714525e+03 0.0 0.0 9.0
22  1 1 2   0   0  1.588467e+03  1.998566e+00 -1.063555e+03  1.911644e+03 0.0 0.0 9.0
 2  1 1 2 103   0 -1.588467e+03 -1.998566e+00  2.552872e+03  3.006724e+03 0.0022 0.0 9.0
#pdf 2 21 4.928988e-01 2.637731e-01 5000.0 7.447921e-02 2.953383e-01
</event>
<event>
4 7 1.0 5000.0 7.905138e-03 7.739137e-02
21 -1 0 0 103 101  0.000000e+00  0.000000e+00  1.556122e+03  1.556122e+03 0.0 0.0 9.0
 2 -1 0 0 101   0  0.000000e+00  0.000000e+00 -4.037913e+03  4.037913e+03 0.0 0.0 9.0
 2  1 1 2 103   0  3.947744e+02 -7.449129e+02  1.393187e+03  1.628408e+03 0.0022 0.0 9.0
22  1 1 2   0   0 -3.947744e+02  7.449129e+02 -3.874978e+03  3.965627e+03 0.0 0.0 9.0
#pdf 21 2 2.394034e-01 6.212173e-01 5000.0 7.618376e-02 4.541466e-04
</event>
<event>
4 7 1.0 5000.0 7.905138e-03 7.739137e-02
21 -1 0 0 103 101  0.000000e+00  0.000000e+00  2.157541e+03  2.157541e+03 0.0 0.0 9.0
 2 -1 0 0 101   0  0.000000e+00  0.000000e+00 -2.845869e+03  2.845869e+03 0.0 0.0 9.0
 2  1 1 2 103   0 -1.974054e+02 -2.425301e+03 -8.166584e+02  2.566707e+03 0.0022 0.0 9.0
22  1 1 2   0   0  1.974054e+02  2.425301e+03  1.283301e+02  2.436703e+03 0.0 0.0 9.0
#pdf 21 2 3.319294e-01 4.378260e-01 5000.0 2.436341e-02 6.469925e-03
</event>
<event>
4 7 1.0 5000.0 7.905138e-03 7.739137e-02
 2 -1 0 0 101   0  0.000000e+00  0.000000e+00  1.804499e+03  1.804499e+03 0.0 0.0 9.0
21 -1 0 0 103 101  0.000000e+00  0.000000e+00 -3.462533e+03  3.462533e+03 0.0 0.0 9.0
 2  1 1 2 103   0  4.261750e+02 -1.603274e+03 -2.798934e+03  3.253635e+03 0.0022 0.0 9.0
22  1 1 2   0   0 -4.261750e+02  1.603274e+03  1.140899e+03  2.013396e+03 0.0 0.0 9.0
#pdf 2 21 2.776152e-01 5.326974e-01 5000.0 2.773292e-01 5.389151e-02
</event>
<event>
4 7 1.0 5000.0 7.905138e-03 7.739137e-02
 2 -1 0 0 101   0  0.000000e+00  0.000000e+00  2.591563e+03  2.591563e+03 0.0 0.0 9.0
21 -1 0 0 103 101  0.000000e+00  0.000000e+00 -2.323055e+03  2.323055e+03 0.0 0.0 9.0
 2  1 1 2 103   0 -9.857043e+02 -1.443583e+03 -1.590181e+03  2.363095e+03 0.0022 0.0 9.0
22  1 1 2   0   0  9.857043e+02  1.443583e+03  1.858689e+03  2.551523e+03 0.0 0.0 9.0
#pdf 2 21 3.987020e-01 3.573931e-01 5000.0 1.437413e-01 1.838576e-01
</event>
<event>
4 7 1.0 5000.0 7.905138e-03 7.739137e-02
21 -1 0 0 103 101  0.000000e+00  0.000000e+00  3.236874e+03  3.236874e+03 0.0 0.0 9.0
 2 -1 0 0 101   0  0.000000e+00  0.000000e+00 -1.694038e+03  1.694038e+03 0.0 0.0 9.0
 2  1 1 2 103   0  6.535097e+02  2.101360e+03  1.614104e+03  2.729124e+03 0.0022 0.0 9.0
22  1 1 2   0   0 -6.535097e+02 -2.101360e+03 -7.126829e+01  2.201787e+03 0.0 0.0 9.0
#pdf 21 2 4.979806e-01 2.606212e-01 5000.0 2.898216e-03 5.845179e-02
</event>
<event>
4 7 1.0 5000.0 7.905138e-03 7.739137e-02
 2 -1 0 0 101   0  0.000000e+00  0.000000e+00  1.526283e+03  1.526283e+03 0.0 0.0 9.0
21 -1 0 0 103 101  0.000000e+00  0.000000e+00 -3.718106e+03  3.718106e+03 0.0 0.0 9.0
 2  1 1 2 103   0  1.110082e+02  1.461209e+03  9.714456e+02  1.758170e+03 0.0022 0.0 9.0
22  1 1 2   0   0 -1.110082e+02 -1.461209e+03 -3.163269e+03  3.486219e+03 0.0 0.0 9.0
#pdf 2 21 2.348127e-01 5.720163e-01 5000.0 3.341335e-01 3.790127e-02
</event>
<event>
4 7 1.0 5000.0 7.905138e-03 7.739137e-02
 2 -1 0 0 101   0  0.000000e+00  0.000000e+00  2.568197e+03  2.568197e+03 0.0 0.0 9.0
21 -1 0 0 103 101  0.000000e+00  0.000000e+00 -2.048767e+03  2.048767e+03 0.0 0.0 9.0
 2  1 1 2 103   0  4.193655e+01 -5.796895e+02 -1.973435e+03  2.057242e+03 0.0022 0.0 9.0
22  1 1 2   0   0 -4.193655e+01  5.796895e+02  2.492865e+03  2.559722e+03 0.0 0.0 9.0
#pdf 2 21 3.951073e-01 3.151949e-01 5000.0 1.469977e-01 2.308878e-01
</event>
<event>
4 7 1.0 5000.0 7.905138e-03 7.739137e-02
21 -1 0 0 103 101  0.000000e+00  0.000000e+00  2.467879e+03  2.467879e+03 0.0 0.0 9.0
 2 -1 0 0 101   0  0.000000e+00  0.000000e+00 -3.434508e+03  3.434508e+03 0.0 0.0 9.0
22  1 1 2   0   0 -1.836623e+02 -8.035595e+02 -3.313753e+03  3.414732e+03 0.0 0.0 9.0
 2  1 1 2 103   0  1.836623e+02  8.035595e+02  2.347124e+03  2.487655e+03 0.0022 0.0 9.0
#pdf 21 2 3.796738e-01 5.283859e-01 5000.0 1.353067e-02 1.893159e-03
</event>
<event>
4 7 1.0 5000.0 7.905138e-03 7.739137e-02
21 -1 0 0 103 101  0.000000e+00  0.000000e+00  2.366669e+03  2.366669e+03 0.0 0.0 9.0
 2 -1 0 0 101   0  0.000000e+00  0.000000e+00 -2.644214e+03  2.644214e+03 0.0 0.0 9.0
 2  1 1 2 103   0 -2.156592e+03 -1.097663e+03  4.964154e+02  2.470260e+03 0.0022 0.0 9.0
22  1 1 2   0   0  2.156592e+03  1.097663e+03 -7.739597e+02  2.540624e+03 0.0 0.0 9.0
#pdf 21 2 3.641030e-01 4.068021e-01 5000.0 1.640168e-02 9.617351e-03
</event>
<event>
4 7 1.0 5000.0 7.905138e-03 7.739137e-02
21 -1 0 0 103 101  0.000000e+00  0.000000e+00  1.461246e+03  1.461246e+03 0.0 0.0 9.0
 2 -1 0 0 101   0  0.000000e+00  0.000000e+00 -4.380880e+03  4.380880e+03 0.0 0.0 9.0
22  1 1 2   0   0 -1.851295e+03  6.963055e+02  3.617558e+02  2.010722e+03 0.0 0.0 9.0
 2  1 1 2 103   0  1.851295e+03 -6.963055e+02 -3.281390e+03  3.831404e+03 0.0022 0.0 9.0
#pdf 21 2 2.248071e-01 6.739816e-01 5000.0 9.147135e-02 1.790542e-04
</event>
<event>
4 7 1.0 5000.0 7.905138e-03 7.739137e-02
 2 -1 0 0 101   0  0.000000e+00  0.000000e+00  2.835739e+03  2.835739e+03 0.0 0.0 9.0
21 -1 0 0 103 101  0.000000e+00  0.000000e+00 -2.151189e+03  2.151189e+03 0.0 0.0 9.0
22  1 1 2   0   0 -2.425417e+03 -7.779676e+01 -1.220255e+02  2.429730e+03 0.0 0.0 9.0
 2  1 1 2 103   0  2.425417e+03  7.779676e+01  8.065753e+02  2.557198e+03 0.0022 0.0 9.0
#pdf 2 21 4.362675e-01 3.309522e-01 5000.0 1.124715e-01 2.126435e-01
</event>
<event>
4 7 1.0 5000.0 7.905138e-03 7.739137e-02
21 -1 0 0 103 101  0.000000e+00  0.000000e+00  2.010713e+03  2.010713e+03 0.0 0.0 9.0
 2 -1 0 0 101   0  0.000000e+00  0.000000e+00 -3.211255e+03  3.211255e+03 0.0 0.0 9.0
 2  1 1 2 103   0 -7.820096e+02 -1.614785e+03 -2.449198e+03  3.036057e+03 0.0022 0.0 9.0
22  1 1 2   0   0  7.820096e+02  1.614785e+03  1.248655e+03  2.185912e+03 0.0 0.0 9.0
#pdf 21 2 3.093404e-01 4.940393e-01 5000.0 3.215654e-02 3.059333e-03
</event>
<event>
4 7 1.0 5000.0 7.905138e-03 7.739137e-02
 2 -1 0 0 101   0  0.000000e+00  0.000000e+00  3.756578e+03  3.756578e+03 0.0 0.0 9.0
21 -1 0 0 103 101  0.000000e+00  0.000000e+00 -1.692787e+03  1.692787e+03 0.0 0.0 9.0
22  1 1 2   0   0  1.693165e+03  1.520598e+03 -1.418419e+02  2.280163e+03 0.0 0.0 9.0
 2  1 1 2 103   0 -1.693165e+03 -1.520598e+03  2.205632e+03  3.169202e+03 0.0022 0.0 9.0
#pdf 2 21 5.779350e-01 2.604288e-01 5000.0 3.583614e-02 2.997383e-01
</event>
<event>
4 7 1.0 5000.0 7.905138e-03 7.739137e-02
21 -1 0 0 103 101  0.000000e+00  0.000000e+00  1.486309e+03  1.486309e+03 0.0 0.0 9.0
 2 -1 0 0 101   0  0.000000e+00  0.000000e+00 -4.173069e+03  4.173069e+03 0.0 0.0 9.0
22  1 1 2   0   0 -2.476918e+03 -2.425744e+02 -1.448165e+03  2.879435e+03 0.0 0.0 9.0
 2  1 1 2 103   0  2.476918e+03  2.425744e+02 -1.238595e+03  2.779943e+03 0.0022 0.0 9.0
#pdf 21 2 2.286629e-01 6.420106e-01 5000.0 8.709295e-02 3.187309e-04
</event>
<event>
4 7 1.0 5000.0 7.905138e-03 7.739137e-02
 2 -1 0 0 101   0  0.000000e+00  0.000000e+00  1.548761e+03  1.548761e+03 0.0 0.0 9.0
21 -1 0 0 103 101  0.000000e+00  0.000000e+00 -4.233310e+03  4.233310e+03 0.0 0.0 9.0
22  1 1 2   0   0  2.225614e+03  1.106489e+03 -6.474530e+02  2.568438e+03 0.0 0.0 9.0
 2  1 1 2 103   0 -2.225614e+03 -1.106489e+03 -2.037096e+03  3.213633e+03 0.0022 0.0 9.0
#pdf 2 21 2.382709e-01 6.512785e-01 5000.0 3.294142e-01 1.654671e-02
</event>
<event>
4 7 1.0 5000.0 7.905138e-03 7.739137e-02
 2 -1 0 0 101   0  0.000000e+00  0.000000e+00  3.355230e+03  3.355230e+03 0.0 0.0 9.0
21 -1 0 0 103 101  0.000000e+00  0.000000e+00 -1.841357e+03  1.841357e+03 0.0 0.0 9.0
 2  1 1 2 103   0 -2.332789e+03 -1.931085e+02  1.630896e+03  2.852896e+03 0.0022 0.0 9.0
22  1 1 2   0   0  2.332789e+03  1.931085e+02 -1.170229e+02  2.343691e+03 0.0 0.0 9.0
#pdf 2 21 5.161892e-01 2.832857e-01 5000.0 6.185680e-02 2.700879e-01
</event>
<event>
4 7 1.0 5000.0 7.905138e-03 7.739137e-02
 2 -1 0 0 101   0  0.000000e+00  0.000000e+00  2.435819e+03  2.435819e+03 0.0 0.0 9.0
21 -1 0 0 103 101  0.000000e+00  0.000000e+00 -2.476878e+03  2.476878e+03 0.0 0.0 9.0
22  1 1 2   0   0 -1.841112e+03  2.115616e+02 -1.632657e+03  2.469822e+03 0.0 0.0 9.0
 2  1 1 2 103   0  1.841112e+03 -2.115616e+02  1.591597e+03  2.442874e+03 0.0022 0.0 9.0
#pdf 2 21 3.747413e-01 3.810581e-01 5000.0 1.662757e-01 1.601438e-01
</event>
<event>
4 7 1.0 5000.0 7.905138e-03 7.739137e-02
 2 -1 0 0 101   0  0.000000e+00  0.000000e+00  1.430074e+03  1.430074e+03 0.0 0.0 9.0
21 -1 0 0 103 101  0.000000e+00  0.000000e+00 -3.117113e+03  3.117113e+03 0.0 0.0 9.0
22  1 1 2   0   0 -8.723261e+02 -1.368445e+03  6.108757e+02  1.734003e+03 0.0 0.0 9.0
 2  1 1 2 103   0  8.723261e+02  1.368445e+03 -2.297914e+03  2.813184e+03 0.0022 0.0 9.0
#pdf 2 21 2.200114e-01 4.795558e-01 5000.0 3.543965e-01 8.247268e-02
</event>
<event>
4 7 1.0 5000.0 7.905138e-03 7.739137e-02
 2 -1 0 0 101   0  0.000000e+00  0.000000e+00  2.474924e+03  2.474924e+03 0.0 0.0 9.0
21 -1 0 0 103 101  0.000000e+00  0.000000e+00 -2.505657e+03  2.505657e+03 0.0 0.0 9.0
22  1 1 2   0   0 -1.640031e+03 -3.491597e+01 -1.889005e+03  2.501852e+03 0.0 0.0 9.0
 2  1 1 2 103   0  1.640031e+03  3.491597e+01  1.858272e+03  2.478729e+03 0.0022 0.0 9.0
#pdf 2 21 3.807575e-01 3.854856e-01 5000.0 1.604327e-01 1.559253e-01
</event>
<event>
4 7 1.0 5000.0 7.905138e-03 7.739137e-02
21 -1 0 0 103 101  0.000000e+00  0.000000e+00  4.027998e+03  4.027998e+03 0.0 0.0 9.0
 2 -1 0 0 101   0  0.000000e+00  0.000000e+00 -1.535312e+03  1.535312e+03 0.0 0.0 9.0
 2  1 1 2 103   0  1.894547e+03  1.524210e+03  6.632812e+02  2.520410e+03 0.0022 0.0 9.0
22  1 1 2   0   0 -1.894547e+03 -1.524210e+03  1.829404e+03  3.042901e+03 0.0 0.0 9.0
#pdf 21 2 6.196920e-01 2.362019e-01 5000.0 4.657850e-04 7.928018e-02
</event>
<event>
4 7 1.0 5000.0 7.905138e-03 7.739137e-02
21 -1 0 0 103 101  0.000000e+00  0.000000e+00  2.999051e+03  2.999051e+03 0.0 0.0 9.0
 2 -1 0 0 101   0  0.000000e+00  0.000000e+00 -2.086818e+03  2.086818e+03 0.0 0.0 9.0
22  1 1 2   0   0 -1.867802e+03  1.120561e+03 -7.946689e+02  2.318586e+03 0.0 0.0 9.0
 2  1 1 2 103   0  1.867802e+03 -1.120561e+03  1.706902e+03  2.767283e+03 0.0022 0.0 9.0
#pdf 21 2 4.613925e-01 3.210489e-01 5000.0 4.746728e-03 2.783303e-02
</event>
<event>
4 7 1.0 5000.0 7.905138e-03 7.739137e-02
21 -1 0 0 103 101  0.000000e+00  0.000000e+00  2.665061e+03  2.665061e+03 0.0 0.0 9.0
 2 -1 0 0 101   0  0.000000e+00  0.000000e+00 -2.375301e+03  2.375301e+03 0.0 0.0 9.0
22  1 1 2   0   0 -1.893431e+03 -6.116729e+02 -1.397507e+03  2.431512e+03 0.0 0.0 9.0
 2  1 1 2 103   0  1.893431e+03  6.116729e+02  1.687267e+03  2.608850e+03 0.0022 0.0 9.0
#pdf 21 2 4.100094e-01 3.654309e-01 5000.0 9.232682e-03 1.613410e-02
</event>
<event>
4 7 1.0 5000.0 7.905138e-03 7.739137e-02
21 -1 0 0 103 101  0.000000e+00  0.000000e+00  1.578830e+03  1.578830e+03 0.0 0.0 9.0
 2 -1 0 0 101   0  0.000000e+00  0.000000e+00 -3.958526e+03  3.958526e+03 0.0 0.0 9.0
22  1 1 2   0   0  6.502309e+02  8.061004e+02 -3.709771e+03  3.851623e+03 0.0 0.0 9.0
 2  1 1 2 103   0 -6.502309e+02 -8.061004e+02  1.330075e+03  1.685734e+03 0.0022 0.0 9.0
#pdf 21 2 2.428970e-01 6.090040e-01 5000.0 7.290165e-02 5.551796e-04
</event>
<event>
4 7 1.0 5000.0 7.905138e-03 7.739137e-02
 2 -1 0 0 101   0  0.000000e+00  0.000000e+00  2.615329e+03  2.615329e+03 0.0 0.0 9.0
21 -1 0 0 103 101  0.000000e+00  0.000000e+00 -2.434613e+03  2.434613e+03 0.0 0.0 9.0
 2  1 1 2 103   0 -6.298674e+02  2.080280e+03 -1.192266e+03  2.479071e+03 0.0022 0.0 9.0
22  1 1 2   0   0  6.298674e+02 -2.080280e+03  1.372982e+03  2.570871e+03 0.0 0.0 9.0
#pdf 2 21 4.023584e-01 3.745558e-01 5000.0 1.404747e-01 1.664576e-01
</event>
<event>
4 7 1.0 5000.0 7.905138e-03 7.739137e-02
 2 -1 0 0 101   0  0.000000e+00  0.000000e+00  3.783901e+03  3.783901e+03 0.0 0.0 9.0
21 -1 0 0 103 101  0.000000e+00  0.000000e+00 -1.643184e+03  1.643184e+03 0.0 0.0 9.0
22  1 1 2   0   0  6.784625e+02  5.893257e+02  3.601541e+03  3.711969e+03 0.0 0.0 9.0
 2  1 1 2 103   0 -6.784625e+02 -5.893257e+02 -1.460824e+03  1.715116e+03 0.0022 0.0 9.0
#pdf 2 21 5.821386e-01 2.527976e-01 5000.0 3.442087e-02 3.098519e-01
</event>
<event>
4 7 1.0 5000.0 7.905138e-03 7.739137e-02
 2 -1 0 0 101   0  0.000000e+00  0.000000e+00  4.789399e+03  4.789399e+03 0.0 0.0 9.0
21 -1 0 0 103 101  0.000000e+00  0.000000e+00 -1.332019e+03  1.332019e+03 0.0 0.0 9.0
 2  1 1 2 103   0  2.199851e+03 -1.000867e+03  2.617923e+03  3.562948e+03 0.0022 0.0 9.0
22  1 1 2   0   0 -2.199851e+03  1.000867e+03  8.394573e+02  2.558470e+03 0.0 0.0 9.0
#pdf 2 21 7.368306e-01 2.049260e-01 5000.0 5.236457e-03 3.752479e-01
</event>
<event>
4 7 1.0 5000.0 7.905138e-03 7.739137e-02
21 -1 0 0 103 101  0.000000e+00  0.000000e+00  2.476728e+03  2.476728e+03 0.0 0.0 9.0
 2 -1 0 0 101   0  0.000000e+00  0.000000e+00 -1.794122e+03  1.794122e+03 0.0 0.0 9.0
 2  1 1 2 103   0 -1.307641e+03  1.466347e+03 -4.324854e+02  2.011751e+03 0.0022 0.0 9.0
22  1 1 2   0   0  1.307641e+03 -1.466347e+03  1.115091e+03  2.259099e+03 0.0 0.0 9.0
#pdf 21 2 3.810351e-01 2.760188e-01 5000.0 1.330279e-02 4.833495e-02
</event>
<event>
4 7 1.0 5000.0 7.905138e-03 7.739137e-02
21 -1 0 0 103 101  0.000000e+00  0.000000e+00  1.286036e+03  1.286036e+03 0.0 0.0 9.0
 2 -1 0 0 101   0  0.000000e+00  0.000000e+00 -3.500794e+03  3.500794e+03 0.0 0.0 9.0
22  1 1 2   0   0 -1.603377e+03 -3.536389e+02 -2.623380e+03  3.094835e+03 0.0 0.0 9.0
 2  1 1 2 103   0  1.603377e+03  3.536389e+02  4.086215e+02  1.691995e+03 0.0022 0.0 9.0
#pdf 21 2 1.978516e-01 5.385838e-01 5000.0 1.293775e-01 1.632966e-03
</event>
<event>
4 7 1.0 5000.0 7.905138e-03 7.739137e-02
21 -1 0 0 103 101  0.000000e+00  0.000000e+00  2.176458e+03  2.176458e+03 0.0 0.0 9.0
 2 -1 0 0 101   0  0.000000e+00  0.000000e+00 -2.613185e+03  2.613185e+03 0.0 0.0 9.0
 2  1 1 2 103   0 -1.246956e+03 -1.789640e+03 -1.186646e+03  2.483111e+03 0.0022 0.0 9.0
22  1 1 2   0   0  1.246956e+03  1.789640e+03  7.499178e+02  2.306532e+03 0.0 0.0 9.0
#pdf 21 2 3.348396e-01 4.020285e-01 5000.0 2.350784e-02 1.021556e-02
</event>
<event>
4 7 1.0 5000.0 7.905138e-03 7.739137e-02
 2 -1 0 0 101   0  0.000000e+00  0.000000e+00  3.305082e+03  3.305082e+03 0.0 0.0 9.0
21 -1 0 0 103 101  0.000000e+00  0.000000e+00 -1.925525e+03  1.925525e+03 0.0 0.0 9.0
 2  1 1 2 103   0 -4.745756e+02  1.015156e+03  3.032889e+03  3.233292e+03 0.0022 0.0 9.0
22  1 1 2   0   0  4.745756e+02 -1.015156e+03 -1.653331e+03  1.997315e+03 0.0 0.0 9.0
#pdf 2 21 5.084742e-01 2.962346e-01 5000.0 6.585554e-02 2.538258e-01
</event>
<event>
4 7 1.0 5000.0 7.905138e-03 7.739137e-02
 2 -1 0 0 101   0  0.000000e+00  0.000000e+00  3.648620e+03  3.648620e+03 0.0 0.0 9.0
21 -1 0 0 103 101  0.000000e+00  0.000000e+00 -1.808206e+03  1.808206e+03 0.0 0.0 9.0
 2  1 1 2 103   0  1.151332e+03 -2.017274e+03  2.085041e+03  3.121275e+03 0.0022 0.0 9.0
22  1 1 2   0   0 -1.151332e+03  2.017274e+03 -2.446271e+02  2.335552e+03 0.0 0.0 9.0
#pdf 2 21 5.613262e-01 2.781856e-01 5000.0 4.186505e-02 2.765967e-01
</event>
<event>
4 7 1.0 5000.0 7.905138e-03 7.739137e-02
 2 -1 0 0 101   0  0.000000e+00  0.000000e+00  1.510698e+03  1.510698e+03 0.0 0.0 9.0
21 -1 0 0 103 101  0.000000e+00  0.000000e+00 -3.481724e+03  3.481724e+03 0.0 0.0 9.0
22  1 1 2   0   0  1.329445e+03 -5.846244e+02 -2.917453e+03  3.258948e+03 0.0 0.0 9.0
 2  1 1 2 103   0 -1.329445e+03  5.846244e+02  9.464274e+02  1.733474e+03 0.0022 0.0 9.0
#pdf 2 21 2.324151e-01 5.356498e-01 5000.0 3.374179e-01 5.254215e-02
</event>
<event>
4 7 1.0 5000.0 7.905138e-03 7.739137e-02
 2 -1 0 0 101   0  0.000000e+00  0.000000e+00  3.969152e+03  3.969152e+03 0.0 0.0 9.0
21 -1 0 0 103 101  0.000000e+00  0.000000e+00 -1.563317e+03  1.563317e+03 0.0 0.0 9.0
 2  1 1 2 103   0 -2.616179e+01 -1.391546e+03 -1.091257e+03  1.768595e+03 0.0022 0.0 9.0
22  1 1 2   0   0  2.616179e+01  1.391546e+03  3.497093e+03  3.763874e+03 0.0 0.0 9.0
#pdf 2 21 6.106388e-01 2.405102e-01 5000.0 2.588426e-02 3.263767e-01
</event>
<event>
4 7 1.0 5000.0 7.905138e-03 7.739137e-02
21 -1 0 0 103 101  0.000000e+00  0.000000e+00  2.721898e+03  2.721898e+03 0.0 0.0 9.0
 2 -1 0 0 101   0  0.000000e+00  0.000000e+00 -2.265587e+03  2.265587e+03 0.0 0.0 9.0
22  1 1 2   0   0 -1.932031e+03  6.666924e+02  1.644584e+03  2.623333e+03 0.0 0.0 9.0
 2  1 1 2 103   0  1.932031e+03 -6.666924e+02 -1.188273e+03  2.364152e+03 0.0022 0.0 9.0
#pdf 21 2 4.187536e-01 3.485519e-01 5000.0 8.260511e-03 1.987062e-02
</event>
<event>
4 7 1.0 5000.0 7.905138e-03 7.739137e-02
 2 -1 0 0 101   0  0.000000e+00  0.000000e+00  4.393799e+03  4.393799e+03 0.0 0.0 9.0
21 -1 0 0 103 101  0.000000e+00  0.000000e+00 -1.425187e+03  1.425187e+03 0.0 0.0 9.0
22  1 1 2   0   0  1.811316e+03 -1.278809e+03  2.833103e+03  3.597595e+03 0.0 0.0 9.0
 2  1 1 2 103   0 -1.811316e+03  1.278809e+03  1.355092e+02  2.221391e+03 0.0022 0.0 9.0
#pdf 2 21 6.759691e-01 2.192595e-01 5000.0 1.226127e-02 3.554274e-01
</event>
<event>
4 7 1.0 5000.0 7.905138e-03 7.739137e-02
21 -1 0 0 103 101  0.000000e+00  0.000000e+00  2.150070e+03  2.150070e+03 0.0 0.0 9.0
 2 -1 0 0 101   0  0.000000e+00  0.000000e+00 -2.853294e+03  2.853294e+03 0.0 0.0 9.0
 2  1 1 2 103   0 -8.557909e+02  2.271827e+03  1.444399e+02  2.431962e+03 0.0022 0.0 9.0
22  1 1 2   0   0  8.557909e+02 -2.271827e+03 -8.476638e+02  2.571402e+03 0.0 0.0 9.0
#pdf 21 2 3.307800e-01 4.389683e-01 5000.0 2.470907e-02 6.375274e-03
</event>
<event>
4 7 1.0 5000.0 7.905138e-03 7.739137e-02
 2 -1 0 0 101   0  0.000000e+00  0.000000e+00  3.625016e+03  3.625016e+03 0.0 0.0 9.0
21 -1 0 0 103 101  0.000000e+00  0.000000e+00 -1.670487e+03  1.670487e+03 0.0 0.0 9.0
 2  1 1 2 103   0  1.923781e+03  8.769905e+02 -3.775616e+02  2.147696e+03 0.0022 0.0 9.0
22  1 1 2   0   0 -1.923781e+03 -8.769905e+02  2.332090e+03  3.147807e+03 0.0 0.0 9.0
#pdf 2 21 5.576947e-01 2.569980e-01 5000.0 4.327014e-02 3.042690e-01
</event>
<event>
4 7 1.0 5000.0 7.905138e-03 7.739137e-02
21 -1 0 0 103 101  0.000000e+00  0.000000e+00  2.085373e+03  2.085373e+03 0.0 0.0 9.0
 2 -1 0 0 101   0  0.000000e+00  0.000000e+00 -3.032312e+03  3.032312e+03 0.0 0.0 9.0
22  1 1 2   0   0 -2.431536e+03 -2.172409e+02 -1.087341e+03  2.672428e+03 0.0 0.0 9.0
 2  1 1 2 103   0  2.431536e+03  2.172409e+02  1.404021e+02  2.445256e+03 0.0022 0.0 9.0
#pdf 21 2 3.208266e-01 4.665095e-01 5000.0 2.790890e-02 4.435913e-03
</event>
<event>
4 7 1.0 5000.0 7.905138e-03 7.739137e-02
 2 -1 0 0 101   0  0.000000e+00  0.000000e+00  1.685047e+03  1.685047e+03 0.0 0.0 9.0
21 -1 0 0 103 101  0.000000e+00  0.000000e+00 -3.518782e+03  3.518782e+03 0.0 0.0 9.0
22  1 1 2   0   0  4.136213e+02 -1.268341e+03  1.259794e+03  1.834899e+03 0.0 0.0 9.0
 2  1 1 2 103   0 -4.136213e+02  1.268341e+03 -3.093529e+03  3.368931e+03 0.0022 0.0 9.0
#pdf 2 21 2.592381e-01 5.413511e-01 5000.0 3.013084e-01 5.001381e-02
</event>
<event>
4 7 1.0 5000.0 7.905138e-03 7.739137e-02
21 -1 0 0 103 101  0.000000e+00  0.000000e+00  3.263135e+03  3.263135e+03 0.0 0.0 9.0
 2 -1 0 0 101   0  0.000000e+00  0.000000e+00 -1.880453e+03  1.880453e+03 0.0 0.0 9.0
 2  1 1 2 103   0  8.560416e+02  8.443657e+02 -1.557159e+03  1.967360e+03 0.0022 0.0 9.0
22  1 1 2   0   0 -8.560416e+02 -8.443657e+02  2.939841e+03  3.176228e+03 0.0 0.0 9.0
#pdf 21 2 5.020208e-01 2.893004e-01 5000.0 2.740529e-03 4.108563e-02
</event>
<event>
4 7 1.0 5000.0 7.905138e-03 7.739137e-02
 2 -1 0 0 101   0  0.000000e+00  0.000000e+00  3.471016e+03  3.471016e+03 0.0 0.0 9.0
21 -1 0 0 103 101  0.000000e+00  0.000000e+00 -1.832359e+03  1.832359e+03 0.0 0.0 9.0
 2  1 1 2 103   0 -2.455549e+03  3.749350e+02  3.611913e+02  2.510130e+03 0.0022 0.0 9.0
22  1 1 2   0   0  2.455549e+03 -3.749350e+02  1.277465e+03  2.793244e+03 0.0 0.0 9.0
#pdf 2 21 5.340024e-01 2.819014e-01 5000.0 5.329263e-02 2.718485e-01
</event>
<event>
4 7 1.0 5000.0 7.905138e-03 7.739137e-02
 2 -1 0 0 101   0  0.000000e+00  0.000000e+00  2.050313e+03  2.050313e+03 0.0 0.0 9.0
21 -1 0 0 103 101  0.000000e+00  0.000000e+00 -3.062127e+03  3.062127e+03 0.0 0.0 9.0
22  1 1 2   0   0  2.083314e+03  9.616830e+02 -1.532842e+03  2.759463e+03 0.0 0.0 9.0
 2  1 1 2 103   0 -2.083314e+03 -9.616830e+02  5.210281e+02  2.352977e+03 0.0022 0.0 9.0
#pdf 2 21 3.154327e-01 4.710964e-01 5000.0 2.306070e-01 8.784287e-02
</event>
<event>
4 7 1.0 5000.0 7.905138e-03 7.739137e-02
 2 -1 0 0 101   0  0.000000e+00  0.000000e+00  1.955121e+03  1.955121e+03 0.0 0.0 9.0
21 -1 0 0 103 101  0.000000e+00  0.000000e+00 -3.202302e+03  3.202302e+03 0.0 0.0 9.0
 2  1 1 2 103   0 -5.367226e+02 -6.996692e+01  1.894065e+03  1.969885e+03 0.0022 0.0 9.0
22  1 1 2   0   0  5.367226e+02  6.996692e+01 -3.141246e+03  3.187538e+03 0.0 0.0 9.0
#pdf 2 21 3.007878e-01 4.926619e-01 5000.0 2.482357e-01 7.461622e-02
</event>
<event>
4 7 1.0 5000.0 7.905138e-03 7.739137e-02
 2 -1 0 0 101   0  0.000000e+00  0.000000e+00  2.534877e+03  2.534877e+03 0.0 0.0 9.0
21 -1 0 0 103 101  0.000000e+00  0.000000e+00 -2.349478e+03  2.349478e+03 0.0 0.0 9.0
22  1 1 2   0   0 -6.012131e+02 -4.715423e+02 -2.226693e+03  2.354139e+03 0.0 0.0 9.0
 2  1 1 2 103   0  6.012131e+02  4.715423e+02  2.412091e+03  2.530216e+03 0.0022 0.0 9.0
#pdf 2 21 3.899811e-01 3.614582e-01 5000.0 1.517140e-01 1.796432e-01
</event>
<event>
4 7 1.0 5000.0 7.905138e-03 7.739137e-02
 2 -1 0 0 101   0  0.000000e+00  0.000000e+00  3.996242e+03  3.996242e+03 0.0 0.0 9.0
21 -1 0 0 103 101  0.000000e+00  0.000000e+00 -1.562783e+03  1.562783e+03 0.0 0.0 9.0
22  1 1 2   0   0  9.977783e+02  2.215724e+03  1.865516e+03  3.063518e+03 0.0 0.0 9.0
 2  1 1 2 103   0 -9.977783e+02 -2.215724e+03  5.679437e+02  2.495507e+03 0.0022 0.0 9.0
#pdf 2 21 6.148065e-01 2.404281e-01 5000.0 2.478048e-02 3.264878e-01
</event>
<event>
4 7 1.0 5000.0 7.905138e-03 7.739137e-02
 2 -1 0 0 101   0  0.000000e+00  0.000000e+00  1.768522e+03  1.768522e+03 0.0 0.0 9.0
21 -1 0 0 103 101  0.000000e+00  0.000000e+00 -3.479237e+03  3.479237e+03 0.0 0.0 9.0
22  1 1 2   0   0  1.602501e+03 -9.522473e+02 -2.586481e+03  3.188208e+03 0.0 0.0 9.0
 2  1 1 2 103   0 -1.602501e+03  9.522473e+02  8.757663e+02  2.059551e+03 0.0022 0.0 9.0
#pdf 2 21 2.720804e-01 5.352672e-01 5000.0 2.844808e-01 5.271592e-02
</event>
<event>
4 7 1.0 5000.0 7.905138e-03 7.739137e-02
 2 -1 0 0 101   0  0.000000e+00  0.000000e+00  1.887045e+03  1.887045e+03 0.0 0.0 9.0
21 -1 0 0 103 101  0.000000e+00  0.000000e+00 -3.459224e+03  3.459224e+03 0.0 0.0 9.0
22  1 1 2   0   0  4.930128e+02 -2.437412e+03 -1.727314e+02  2.492764e+03 0.0 0.0 9.0
 2  1 1 2 103   0 -4.930128e+02  2.437412e+03 -1.399448e+03  2.853505e+03 0.0022 0.0 9.0
#pdf 2 21 2.903147e-01 5.321884e-01 5000.0 2.612026e-01 5.412620e-02
</event>
<event>
4 7 1.0 5000.0 7.905138e-03 7.739137e-02
 2 -1 0 0 101   0  0.000000e+00  0.000000e+00  2.729096e+03  2.729096e+03 0.0 0.0 9.0
21 -1 0 0 103 101  0.000000e+00  0.000000e+00 -2.405341e+03  2.405341e+03 0.0 0.0 9.0
22  1 1 2   0   0  1.306005e+03  1.303996e+01  2.370493e+03  2.706484e+03 0.0 0.0 9.0
 2  1 1 2 103   0 -1.306005e+03 -1.303996e+01 -2.046738e+03  2.427953e+03 0.0022 0.0 9.0
#pdf 2 21 4.198610e-01 3.700524e-01 5000.0 1.255043e-01 1.709142e-01
</event>
<event>
4 7 1.0 5000.0 7.905138e-03 7.739137e-02
21 -1 0 0 103 101  0.000000e+00  0.000000e+00  2.988703e+03  2.988703e+03 0.0 0.0 9.0
 2 -1 0 0 101   0  0.000000e+00  0.000000e+00 -2.074716e+03  2.074716e+03 0.0 0.0 9.0
 2  1 1 2 103   0 -2.162590e+03  8.135447e+02  1.400972e+03  2.702105e+03 0.0022 0.0 9.0
22  1 1 2   0   0  2.162590e+03 -8.135447e+02 -4.869850e+02  2.361314e+03 0.0 0.0 9.0
#pdf 21 2 4.598004e-01 3.191871e-01 5000.0 4.848387e-03 2.847519e-02
</event>
<event>
4 7 1.0 5000.0 7.905138e-03 7.739137e-02
21 -1 0 0 103 101  0.000000e+00  0.000000e+00  1.381406e+03  1.381406e+03 0.0 0.0 9.0
 2 -1 0 0 101   0  0.000000e+00  0.000000e+00 -4.458257e+03  4.458257e+03 0.0 0.0 9.0
22  1 1 2   0   0  1.136382e+03 -4.693948e+02 -4.074718e+03  4.256175e+03 0.0 0.0 9.0
 2  1 1 2 103   0 -1.136382e+03  4.693948e+02  9.978674e+02  1.583489e+03 0.0022 0.0 9.0
#pdf 21 2 2.125240e-01 6.858857e-01 5000.0 1.070319e-01 1.429069e-04
</event>
<event>
4 7 1.0 5000.0 7.905138e-03 7.739137e-02
 2 -1 0 0 101   0  0.000000e+00  0.000000e+00  3.390551e+03  3.390551e+03 0.0 0.0 9.0
21 -1 0 0 103 101  0.000000e+00  0.000000e+00 -1.886500e+03  1.886500e+03 0.0 0.0 9.0
22  1 1 2   0   0 -2.067551e+03  4.016255e+02 -7.086327e+02  2.222213e+03 0.0 0.0 9.0
 2  1 1 2 103   0  2.067551e+03 -4.016255e+02  2.212683e+03  3.054838e+03 0.0022 0.0 9.0
#pdf 2 21 5.216232e-01 2.902308e-01 5000.0 5.914808e-02 2.613079e-01
</event>
<event>
4 7 1.0 5000.0 7.905138e-03 7.739137e-02
 2 -1 0 0 101   0  0.000000e+00  0.000000e+00  2.785861e+03  2.785861e+03 0.0 0.0 9.0
21 -1 0 0 103 101  0.000000e+00  0.000000e+00 -1.693902e+03  1.693902e+03 0.0 0.0 9.0
 2  1 1 2 103   0 -1.264751e+03  1.109184e+03  1.963168e+03  2.585326e+03 0.0022 0.0 9.0
22  1 1 2   0   0  1.264751e+03 -1.109184e+03 -8.712098e+02  1.894436e+03 0.0 0.0 9.0
#pdf 2 21 4.285940e-01 2.606003e-01 5000.0 1.184425e-01 2.995123e-01
</event>
<event>
4 7 1.0 5000.0 7.905138e-03 7.739137e-02
21 -1 0 0 103 101  0.000000e+00  0.000000e+00  2.906003e+03  2.906003e+03 0.0 0.0 9.0
 2 -1 0 0 101   0  0.000000e+00  0.000000e+00 -2.592109e+03  2.592109e+03 0.0 0.0 9.0
 2  1 1 2 103   0  2.233828e+03  4.976387e+01 -1.439462e+03  2.657915e+03 0.0022 0.0 9.0
22  1 1 2   0   0 -2.233828e+03 -4.976387e+01  1.753356e+03  2.840197e+03 0.0 0.0 9.0
#pdf 21 2 4.470774e-01 3.987860e-01 5000.0 5.728057e-03 1.064099e-02
</event>
<event>
4 7 1.0 5000.0 7.905138e-03 7.739137e-02
 2 -1 0 0 101   0  0.000000e+00  0.000000e+00  3.054694e+03  3.054694e+03 0.0 0.0 9.0
21 -1 0 0 103 101  0.000000e+00  0.000000e+00 -2.046070e+03  2.046070e+03 0.0 0.0 9.0
 2  1 1 2 103   0 -8.719896e+02 -4.097468e+01 -1.885540e+03  2.077813e+03 0.0022 0.0 9.0
22  1 1 2   0   0  8.719896e+02  4.097468e+01  2.894165e+03  3.022951e+03 0.0 0.0 9.0
#pdf 2 21 4.699530e-01 3.147799e-01 5000.0 8.858656e-02 2.313780e-01
</event>
<event>
4 7 1.0 5000.0 7.905138e-03 7.739137e-02
21 -1 0 0 103 101  0.000000e+00  0.000000e+00  3.645216e+03  3.645216e+03 0.0 0.0 9.0
 2 -1 0 0 101   0  0.000000e+00  0.000000e+00 -2.473167e+03  2.473167e+03 0.0 0.0 9.0
22  1 1 2   0   0 -6.667199e+02 -1.547306e+03 -1.946138e+03  2.574125e+03 0.0 0.0 9.0
 2  1 1 2 103   0  6.667199e+02  1.547306e+03  3.118187e+03  3.544257e+03 0.0022 0.0 9.0
#pdf 21 2 5.608024e-01 3.804872e-01 5000.0 1.179076e-03 1.339415e-02
</event>
<event>
4 7 1.0 5000.0 7.905138e-03 7.739137e-02
21 -1 0 0 103 101  0.000000e+00  0.000000e+00  4.264051e+03  4.264051e+03 0.0 0.0 9.0
 2 -1 0 0 101   0  0.000000e+00  0.000000e+00 -1.473495e+03  1.473495e+03 0.0 0.0 9.0
 2  1 1 2 103   0 -1.101990e+03  1.790754e+03  2.956937e+03  3.628314e+03 0.0022 0.0 9.0
22  1 1 2   0   0  1.101990e+03 -1.790754e+03 -1.663813e+02  2.109233e+03 0.0 0.0 9.0
#pdf 21 2 6.560079e-01 2.266916e-01 5000.0 2.492079e-04 8.929836e-02
</event>
<event>
4 7 1.0 5000.0 7.905138e-03 7.739137e-02
21 -1 0 0 103 101  0.000000e+00  0.000000e+00  2.256717e+03  2.256717e+03 0.0 0.0 9.0
 2 -1 0 0 101   0  0.000000e+00  0.000000e+00 -2.766178e+03  2.766178e+03 0.0 0.0 9.0
22  1 1 2   0   0  1.484702e+02 -9.131296e+02  2.078213e+03  2.274822e+03 0.0 0.0 9.0
 2  1 1 2 103   0 -1.484702e+02  9.131296e+02 -2.587674e+03  2.748073e+03 0.0022 0.0 9.0
#pdf 21 2 3.471872e-01 4.255659e-01 5000.0 2.020610e-02 7.570896e-03
</event>
<event>
4 7 1.0 5000.0 7.905138e-03 7.739137e-02
21 -1 0 0 103 101  0.000000e+00  0.000000e+00  1.550589e+03  1.550589e+03 0.0 0.0 9.0
 2 -1 0 0 101   0  0.000000e+00  0.000000e+00 -4.703338e+03  4.703338e+03 0.0 0.0 9.0
 2  1 1 2 103   0 -3.874817e+02 -2.579231e+03 -7.655381e+02  2.718202e+03 0.0022 0.0 9.0
22  1 1 2   0   0  3.874817e+02  2.579231e+03 -2.387211e+03  3.535725e+03 0.0 0.0 9.0
#pdf 21 2 2.385522e-01 7.235905e-01 5000.0 7.699745e-02 6.638365e-05
</event>
<event>
4 7 1.0 5000.0 7.905138e-03 7.739137e-02
21 -1 0 0 103 101  0.000000e+00  0.000000e+00  1.797413e+03  1.797413e+03 0.0 0.0 9.0
 2 -1 0 0 101   0  0.000000e+00  0.000000e+00 -3.535429e+03  3.535429e+03 0.0 0.0 9.0
22  1 1 2   0   0  2.338240e+03 -7.408215e+02 -1.484363e+03  2.866970e+03 0.0 0.0 9.0
 2  1 1 2 103   0 -2.338240e+03  7.408215e+02 -2.536531e+02  2.465872e+03 0.0022 0.0 9.0
#pdf 21 2 2.765250e-01 5.439121e-01 5000.0 4.803517e-02 1.511807e-03
</event>
<event>
4 7 1.0 5000.0 7.905138e-03 7.739137e-02
21 -1 0 0 103 101  0.000000e+00  0.000000e+00  2.074097e+03  2.074097e+03 0.0 0.0 9.0
 2 -1 0 0 101   0  0.000000e+00  0.000000e+00 -2.981530e+03  2.981530e+03 0.0 0.0 9.0
22  1 1 2   0   0  2.278277e+03  2.100260e+02 -1.444136e+03  2.705584e+03 0.0 0.0 9.0
 2  1 1 2 103   0 -2.278277e+03 -2.100260e+02  5.367023e+02  2.350044e+03 0.0022 0.0 9.0
#pdf 21 2 3.190918e-01 4.586970e-01 5000.0 2.850846e-02 4.920226e-03
</event>
<event>
4 7 1.0 5000.0 7.905138e-03 7.739137e-02
 2 -1 0 0 101   0  0.000000e+00  0.000000e+00  4.007215e+03  4.007215e+03 0.0 0.0 9.0
21 -1 0 0 103 101  0.000000e+00  0.000000e+00 -1.568019e+03  1.568019e+03 0.0 0.0 9.0
 2  1 1 2 103   0  6.092845e+02  2.429139e+03  1.100610e+03  2.735559e+03 0.0022 0.0 9.0
22  1 1 2   0   0 -6.092845e+02 -2.429139e+03  1.338585e+03  2.839675e+03 0.0 0.0 9.0
#pdf 2 21 6.164945e-01 2.412337e-01 5000.0 2.434345e-02 3.253994e-01
</event>
<event>
4 7 1.0 5000.0 7.905138e-03 7.739137e-02
 2 -1 0 0 101   0  0.000000e+00  0.000000e+00  2.696282e+03  2.696282e+03 0.0 0.0 9.0
21 -1 0 0 103 101  0.000000e+00  0.000000e+00 -3.277060e+03  3.277060e+03 0.0 0.0 9.0
22  1 1 2   0   0  2.751118e+02  1.758342e+03  2.101791e+03  2.754084e+03 0.0 0.0 9.0
 2  1 1 2 103   0 -2.751118e+02 -1.758342e+03 -2.682568e+03  3.219258e+03 0.0022 0.0 9.0
#pdf 2 21 4.148127e-01 5.041630e-01 5000.0 1.297126e-01 6.816792e-02
</event>
<event>
4 7 1.0 5000.0 7.905138e-03 7.739137e-02
 2 -1 0 0 101   0  0.000000e+00  0.000000e+00  1.692628e+03  1.692628e+03 0.0 0.0 9.0
21 -1 0 0 103 101  0.000000e+00  0.000000e+00 -3.694125e+03  3.694125e+03 0.0 0.0 9.0
22  1 1 2   0   0 -1.104069e+03 -1.855846e+03 -2.358783e+03  3.197967e+03 0.0 0.0 9.0
 2  1 1 2 103   0  1.104069e+03  1.855846e+03  3.572864e+02  2.188787e+03 0.0022 0.0 9.0
#pdf 2 21 2.604044e-01 5.683270e-01 5000.0 2.997705e-01 3.923577e-02
</event>
<event>
4 7 1.0 5000.0 7.905138e-03 7.739137e-02
21 -1 0 0 103 101  0.000000e+00  0.000000e+00  4.213479e+03  4.213479e+03 0.0 0.0 9.0
 2 -1 0 0 101   0  0.000000e+00  0.000000e+00 -1.559433e+03  1.559433e+03 0.0 0.0 9.0
22  1 1 2   0   0  1.060126e+03  2.229286e+03  2.104784e+03  3.244025e+03 0.0 0.0 9.0
 2  1 1 2 103   0 -1.060126e+03 -2.229286e+03  5.492619e+02  2.528887e+03 0.0022 0.0 9.0
#pdf 21 2 6.482276e-01 2.399128e-01 5000.0 2.857430e-04 7.569978e-02
</event>
<event>
4 7 1.0 5000.0 7.905138e-03 7.739137e-02
21 -1 0 0 103 101  0.000000e+00  0.000000e+00  2.347612e+03  2.347612e+03 0.0 0.0 9.0
 2 -1 0 0 101   0  0.000000e+00  0.000000e+00 -2.598923e+03  2.598923e+03 0.0 0.0 9.0
 2  1 1 2 103   0  2.335051e+03 -4.162710e+02  5.648147e+02  2.438188e+03 0.0022 0.0 9.0
22  1 1 2   0   0 -2.335051e+03  4.162710e+02 -8.161249e+02  2.508347e+03 0.0 0.0 9.0
#pdf 21 2 3.611712e-01 3.998343e-01 5000.0 1.700299e-02 1.050166e-02
</event>
<event>
4 7 1.0 5000.0 7.905138e-03 7.739137e-02
 2 -1 0 0 101   0  0.000000e+00  0.000000e+00  2.769684e+03  2.769684e+03 0.0 0.0 9.0
21 -1 0 0 103 101  0.000000e+00  0.000000e+00 -2.194445e+03  2.194445e+03 0.0 0.0 9.0
22  1 1 2   0   0  1.108395e+03  1.274823e+03  2.095405e+03  2.691549e+03 0.0 0.0 9.0
 2  1 1 2 103   0 -1.108395e+03 -1.274823e+03 -1.520166e+03  2.272580e+03 0.0022 0.0 9.0
#pdf 2 21 4.261053e-01 3.376069e-01 5000.0 1.204258e-01 2.051818e-01
</event>
<event>
4 7 1.0 5000.0 7.905138e-03 7.739137e-02
 2 -1 0 0 101   0  0.000000e+00  0.000000e+00  3.032913e+03  3.032913e+03 0.0 0.0 9.0
21 -1 0 0 103 101  0.000000e+00  0.000000e+00 -2.118999e+03  2.118999e+03 0.0 0.0 9.0
22  1 1 2   0   0 -1.901742e+03 -1.408716e+03 -4.663338e+02  2.412171e+03 0.0 0.0 9.0
 2  1 1 2 103   0  1.901742e+03  1.408716e+03  1.380248e+03  2.739742e+03 0.0022 0.0 9.0
#pdf 2 21 4.666021e-01 3.259999e-01 5000.0 9.078908e-02 2.182968e-01
</event>
<event>
4 7 1.0 5000.0 7.905138e-03 7.739137e-02
 2 -1 0 0 101   0  0.000000e+00  0.000000e+00  1.687335e+03  1.687335e+03 0.0 0.0 9.0
21 -1 0 0 103 101  0.000000e+00  0.000000e+00 -3.677284e+03  3.677284e+03 0.0 0.0 9.0
22  1 1 2   0   0  1.727887e+03 -1.393048e+03  2.226635e+02  2.230640e+03 0.0 0.0 9.0
 2  1 1 2 103   0 -1.727887e+03  1.393048e+03 -2.212613e+03  3.133980e+03 0.0022 0.0 9.0
#pdf 2 21 2.595900e-01 5.657360e-01 5000.0 3.008441e-01 4.019516e-02
</event>
<event>
4 7 1.0 5000.0 7.905138e-03 7.739137e-02
 2 -1 0 0 101   0  0.000000e+00  0.000000e+00  3.460364e+03  3.460364e+03 0.0 0.0 9.0
21 -1 0 0 103 101  0.000000e+00  0.000000e+00 -1.287475e+03  1.287475e+03 0.0 0.0 9.0
22  1 1 2   0   0 -1.230567e+02  1.682592e+03  2.513026e+03  3.026807e+03 0.0 0.0 9.0
 2  1 1 2 103   0  1.230567e+02 -1.682592e+03 -3.401365e+02  1.721032e+03 0.0022 0.0 9.0
#pdf 2 21 5.323637e-01 1.980730e-01 5000.0 5.404530e-02 3.846937e-01
</event>
<event>
4 7 1.0 5000.0 7.905138e-03 7.739137e-02
 2 -1 0 0 101   0  0.000000e+00  0.000000e+00  1.862582e+03  1.862582e+03 0.0 0.0 9.0
21 -1 0 0 103 101  0.000000e+00  0.000000e+00 -3.076950e+03  3.076950e+03 0.0 0.0 9.0
22  1 1 2   0   0  1.391839e+03  8.304974e+02 -2.424824e+03  2.916627e+03 0.0 0.0 9.0
 2  1 1 2 103   0 -1.391839e+03 -8.304974e+02  1.210455e+03  2.022905e+03 0.0022 0.0 9.0
#pdf 2 21 2.865510e-01 4.733770e-01 5000.0 2.659470e-01 8.637207e-02
</event>
<event>
4 7 1.0 5000.0 7.905138e-03 7.739137e-02
 2 -1 0 0 101   0  0.000000e+00  0.000000e+00  2.818694e+03  2.818694e+03 0.0 0.0 9.0
21 -1 0 0 103 101  0.000000e+00  0.000000e+00 -2.223061e+03  2.223061e+03 0.0 0.0 9.0
22  1 1 2   0   0 -2.152178e+03  9.934027e+02  1.108109e+03  2.616606e+03 0.0 0.0 9.0
 2  1 1 2 103   0  2.152178e+03 -9.934027e+02 -5.124762e+02  2.425149e+03 0.0022 0.0 9.0
#pdf 2 21 4.336453e-01 3.420094e-01 5000.0 1.144892e-01 2.003245e-01
</event>
<event>
4 7 1.0 5000.0 7.905138e-03 7.739137e-02
21 -1 0 0 103 101  0.000000e+00  0.000000e+00  3.606743e+03  3.606743e+03 0.0 0.0 9.0
 2 -1 0 0 101   0  0.000000e+00  0.000000e+00 -1.721856e+03  1.721856e+03 0.0 0.0 9.0
 2  1 1 2 103   0  1.659962e+01 -6.038886e+02  3.527272e+03  3.578632e+03 0.0022 0.0 9.0
22  1 1 2   0   0 -1.659962e+01  6.038886e+02 -1.642385e+03  1.749967e+03 0.0 0.0 9.0
#pdf 21 2 5.548835e-01 2.649009e-01 5000.0 1.286429e-03 5.542318e-02
</event>
<event>
4 7 1.0 5000.0 7.905138e-03 7.739137e-02
 2 -1 0 0 101   0  0.000000e+00  0.000000e+00  1.724276e+03  1.724276e+03 0.0 0.0 9.0
21 -1 0 0 103 101  0.000000e+00  0.000000e+00 -3.598426e+03  3.598426e+03 0.0 0.0 9.0
22  1 1 2   0   0 -5.211372e+02  1.207224e+03 -3.197412e+03  3.457227e+03 0.0 0.0 9.0
 2  1 1 2 103   0  5.211372e+02 -1.207224e+03  1.323262e+03  1.865475e+03 0.0022 0.0 9.0
#pdf 2 21 2.652732e-01 5.536040e-01 5000.0 2.933690e-01 4.487936e-02
</event>
<event>
4 7 1.0 5000.0 7.905138e-03 7.739137e-02
 2 -1 0 0 101   0  0.000000e+00  0.000000e+00  3.051639e+03  3.051639e+03 0.0 0.0 9.0
21 -1 0 0 103 101  0.000000e+00  0.000000e+00 -2.058419e+03  2.058419e+03 0.0 0.0 9.0
22  1 1 2   0   0 -2.079510e+03 -1.463797e+02  1.914978e+03  2.830711e+03 0.0 0.0 9.0
 2  1 1 2 103   0  2.079510e+03  1.463797e+02 -9.217576e+02  2.279347e+03 0.0022 0.0 9.0
#pdf 2 21 4.694830e-01 3.166799e-01 5000.0 8.889339e-02 2.291377e-01
</event>
<event>
4 7 1.0 5000.0 7.905138e-03 7.739137e-02
21 -1 0 0 103 101  0.000000e+00  0.000000e+00  4.450537e+03  4.450537e+03 0.0 0.0 9.0
 2 -1 0 0 101   0  0.000000e+00  0.000000e+00 -1.416555e+03  1.416555e+03 0.0 0.0 9.0
 2  1 1 2 103   0  1.068855e+03  5.390156e+02 -1.061696e+03  1.600058e+03 0.0022 0.0 9.0
22  1 1 2   0   0 -1.068855e+03 -5.390156e+02  4.095679e+03  4.267033e+03 0.0 0.0 9.0
#pdf 21 2 6.846980e-01 2.179315e-01 5000.0 1.461820e-04 9.988865e-02
</event>
<event>
4 7 1.0 5000.0 7.905138e-03 7.739137e-02
 2 -1 0 0 101   0  0.000000e+00  0.000000e+00  2.066599e+03  2.066599e+03 0.0 0.0 9.0
21 -1 0 0 103 101  0.000000e+00  0.000000e+00 -3.040418e+03  3.040418e+03 0.0 0.0 9.0
 2  1 1 2 103   0 -2.196930e+03  5.786919e+02 -1.565924e+03  2.759258e+03 0.0022 0.0 9.0
22  1 1 2   0   0  2.196930e+03 -5.786919e+02  5.921050e+02  2.347759e+03 0.0 0.0 9.0
#pdf 2 21 3.179383e-01 4.677566e-01 5000.0 2.276600e-01 9.002634e-02
</event>
<event>
4 7 1.0 5000.0 7.905138e-03 7.739137e-02
 2 -1 0 0 101   0  0.000000e+00  0.000000e+00  2.782946e+03  2.782946e+03 0.0 0.0 9.0
21 -1 0 0 103 101  0.000000e+00  0.000000e+00 -2.142151e+03  2.142151e+03 0.0 0.0 9.0
22  1 1 2   0   0  3.415239e+02 -2.176717e+03 -7.406476e+02  2.324498e+03 0.0 0.0 9.0
 2  1 1 2 103   0 -3.415239e+02  2.176717e+03  1.381442e+03  2.600599e+03 0.0022 0.0 9.0
#pdf 2 21 4.281455e-01 3.295618e-01 5000.0 1.187980e-01 2.142225e-01
</event>
<event>
4 7 1.0 5000.0 7.905138e-03 7.739137e-02
 2 -1 0 0 101   0  0.000000e+00  0.000000e+00  2.165588e+03  2.165588e+03 0.0 0.0 9.0
21 -1 0 0 103 101  0.000000e+00  0.000000e+00 -2.981025e+03  2.981025e+03 0.0 0.0 9.0
22  1 1 2   0   0 -1.642162e+03 -2.489105e+01 -2.371168e+03  2.884398e+03 0.0 0.0 9.0
 2  1 1 2 103   0  1.642162e+03  2.489105e+01  1.555732e+03  2.262215e+03 0.0022 0.0 9.0
#pdf 2 21 3.331674e-01 4.586192e-01 5000.0 2.101419e-01 9.618490e-02
</event>
<event>
4 7 1.0 5000.0 7.905138e-03 7.739137e-02
21 -1 0 0 103 101  0.000000e+00  0.000000e+00  1.717530e+03  1.717530e+03 0.0 0.0 9.0
 2 -1 0 0 101   0  0.000000e+00  0.000000e+00 -3.413959e+03  3.413959e+03 0.0 0.0 9.0
22  1 1 2   0   0 -2.035920e+03 -1.117674e+03 -1.222610e+02  2.325750e+03 0.0 0.0 9.0
 2  1 1 2 103   0  2.035920e+03  1.117674e+03 -1.574169e+03  2.805739e+03 0.0022 0.0 9.0
#pdf 21 2 2.642353e-01 5.252245e-01 5000.0 5.588154e-02 1.979954e-03
</event>
<event>
4 7 1.0 5000.0 7.905138e-03 7.739137e-02
21 -1 0 0 103 101  0.000000e+00  0.000000e+00  1.954678e+03  1.954678e+03 0.0 0.0 9.0
 2 -1 0 0 101   0  0.000000e+00  0.000000e+00 -3.100718e+03  3.100718e+03 0.0 0.0 9.0
 2  1 1 2 103   0  2.042678e+02 -2.207878e+03  5.253686e+02  2.278697e+03 0.0022 0.0 9.0
22  1 1 2   0   0 -2.042678e+02  2.207878e+03 -1.671408e+03  2.776698e+03 0.0 0.0 9.0
#pdf 21 2 3.007197e-01 4.770335e-01 5000.0 3.569700e-02 3.853813e-03
</event>
<event>
4 7 1.0 5000.0 7.905138e-03 7.739137e-02
 2 -1 0 0 101   0  0.000000e+00  0.000000e+00  1.828352e+03  1.828352e+03 0.0 0.0 9.0
21 -1 0 0 103 101  0.000000e+00  0.000000e+00 -3.403476e+03  3.403476e+03 0.0 0.0 9.0
 2  1 1 2 103   0  1.358766e+03  1.370981e+03  8.694827e+02  2.117034e+03 0.0022 0.0 9.0
22  1 1 2   0   0 -1.358766e+03 -1.370981e+03 -2.444607e+03  3.114794e+03 0.0 0.0 9.0
#pdf 2 21 2.812849e-01 5.236117e-01 5000.0 2.726335e-01 5.817938e-02
</event>
<event>
4 7 1.0 5000.0 7.905138e-03 7.739137e-02
21 -1 0 0 103 101  0.000000e+00  0.000000e+00  3.341929e+03  3.341929e+03 0.0 0.0 9.0
 2 -1 0 0 101   0  0.000000e+00  0.000000e+00 -1.911122e+03  1.911122e+03 0.0 0.0 9.0
 2  1 1 2 103   0 -1.003656e+02 -1.607879e+03 -1.308284e+03  2.075320e+03 0.0022 0.0 9.0
22  1 1 2   0   0  1.003656e+02  1.607879e+03  2.739091e+03  3.177730e+03 0.0 0.0 9.0
#pdf 21 2 5.141429e-01 2.940187e-01 5000.0 2.315504e-03 3.879705e-02
</event>
<event>
4 7 1.0 5000.0 7.905138e-03 7.739137e-02
 2 -1 0 0 101   0  0.000000e+00  0.000000e+00  1.683369e+03  1.683369e+03 0.0 0.0 9.0
21 -1 0 0 103 101  0.000000e+00  0.000000e+00 -3.675751e+03  3.675751e+03 0.0 0.0 9.0
22  1 1 2   0   0 -3.052561e+01  1.414037e+03  1.208072e+03  1.860073e+03 0.0 0.0 9.0
 2  1 1 2 103   0  3.052561e+01 -1.414037e+03 -3.200453e+03  3.499047e+03 0.0022 0.0 9.0
#pdf 2 21 2.589799e-01 5.655001e-01 5000.0 3.016491e-01 4.028336e-02
</event>
<event>
4 7 1.0 5000.0 7.905138e-03 7.739137e-02
 2 -1 0 0 101   0  0.000000e+00  0.000000e+00  1.791486e+03  1.791486e+03 0.0 0.0 9.0
21 -1 0 0 103 101  0.000000e+00  0.000000e+00 -3.875215e+03  3.875215e+03 0.0 0.0 9.0
 2  1 1 2 103   0  7.746956e+01 -9.442358e+02  1.601987e+03  1.861167e+03 0.0022 0.0 9.0
22  1 1 2   0   0 -7.746956e+01  9.442358e+02 -3.685716e+03  3.805533e+03 0.0 0.0 9.0
#pdf 2 21 2.756132e-01 5.961869e-01 5000.0 2.799069e-01 2.998840e-02
</event>
<event>
4 7 1.0 5000.0 7.905138e-03 7.739137e-02
21 -1 0 0 103 101  0.000000e+00  0.000000e+00  1.544690e+03  1.544690e+03 0.0 0.0 9.0
 2 -1 0 0 101   0  0.000000e+00  0.000000e+00 -4.052712e+03  4.052712e+03 0.0 0.0 9.0
22  1 1 2   0   0  4.542364e+02 -5.225938e+02 -3.943408e+03  4.003736e+03 0.0 0.0 9.0
 2  1 1 2 103   0 -4.542364e+02  5.225938e+02  1.435387e+03  1.593666e+03 0.0022 0.0 9.0
#pdf 21 2 2.376447e-01 6.234941e-01 5000.0 7.787226e-02 4.372161e-04
</event>
<event>
4 7 1.0 5000.0 7.905138e-03 7.739137e-02
21 -1 0 0 103 101  0.000000e+00  0.000000e+00  2.941930e+03  2.941930e+03 0.0 0.0 9.0
 2 -1 0 0 101   0  0.000000e+00  0.000000e+00 -2.228192e+03  2.228192e+03 0.0 0.0 9.0
 2  1 1 2 103   0  5.422410e+02 -2.502224e+03  3.629728e+02  2.585904e+03 0.0022 0.0 9.0
22  1 1 2   0   0 -5.422410e+02  2.502224e+03  3.507649e+02  2.584218e+03 0.0 0.0 9.0
#pdf 21 2 4.526046e-01 3.427988e-01 5000.0 5.333793e-03 2.132033e-02
</event>
<event>
4 7 1.0 5000.0 7.905138e-03 7.739137e-02
 2 -1 0 0 101   0  0.000000e+00  0.000000e+00  1.292905e+03  1.292905e+03 0.0 0.0 9.0
21 -1 0 0 103 101  0.000000e+00  0.000000e+00 -4.917783e+03  4.917783e+03 0.0 0.0 9.0
 2  1 1 2 103   0 -1.271405e+03  4.462763e+02 -4.437223e+03  4.637304e+03 0.0022 0.0 9.0
22  1 1 2   0   0  1.271405e+03 -4.462763e+02  8.123458e+02  1.573384e+03 0.0 0.0 9.0
#pdf 2 21 1.989085e-01 7.565820e-01 5000.0 3.835365e-01 3.802446e-03
</event>
<event>
4 7 1.0 5000.0 7.905138e-03 7.739137e-02
21 -1 0 0 103 101  0.000000e+00  0.000000e+00  1.869150e+03  1.869150e+03 0.0 0.0 9.0
 2 -1 0 0 101   0  0.000000e+00  0.000000e+00 -3.292791e+03  3.292791e+03 0.0 0.0 9.0
22  1 1 2   0   0 -1.881930e+02  2.463563e+03 -9.448237e+02  2.645231e+03 0.0 0.0 9.0
 2  1 1 2 103   0  1.881930e+02 -2.463563e+03 -4.788173e+02  2.516709e+03 0.0022 0.0 9.0
#pdf 21 2 2.875615e-01 5.065832e-01 5000.0 4.195946e-02 2.572665e-03
</event>
<event>
4 7 1.0 5000.0 7.905138e-03 7.739137e-02
 2 -1 0 0 101   0  0.000000e+00  0.000000e+00  4.786233e+03  4.786233e+03 0.0 0.0 9.0
21 -1 0 0 103 101  0.000000e+00  0.000000e+00 -1.313563e+03  1.313563e+03 0.0 0.0 9.0
 2  1 1 2 103   0 -1.481448e+03 -2.019856e+03  1.872399e+03  3.127361e+03 0.0022 0.0 9.0
22  1 1 2   0   0  1.481448e+03  2.019856e+03  1.600271e+03  2.972435e+03 0.0 0.0 9.0
#pdf 2 21 7.363436e-01 2.020866e-01 5000.0 5.276390e-03 3.791538e-01
</event>
<event>
4 7 1.0 5000.0 7.905138e-03 7.739137e-02
 2 -1 0 0 101   0  0.000000e+00  0.000000e+00  2.796718e+03  2.796718e+03 0.0 0.0 9.0
21 -1 0 0 103 101  0.000000e+00  0.000000e+00 -2.134926e+03  2.134926e+03 0.0 0.0 9.0
 2  1 1 2 103   0  2.037153e+03 -4.662707e+02 -9.469109e+02  2.294349e+03 0.0022 0.0 9.0
22  1 1 2   0   0 -2.037153e+03  4.662707e+02  1.608703e+03  2.637295e+03 0.0 0.0 9.0
#pdf 2 21 4.302643e-01 3.284502e-01 5000.0 1.171249e-01 2.154895e-01
</event>
<event>
4 7 1.0 5000.0 7.905138e-03 7.739137e-02
 2 -1 0 0 101   0  0.000000e+00  0.000000e+00  3.470886e+03  3.470886e+03 0.0 0.0 9.0
21 -1 0 0 103 101  0.000000e+00  0.000000e+00 -1.822169e+03  1.822169e+03 0.0 0.0 9.0
22  1 1 2   0   0  6.815222e+02 -1.645100e+03  2.693203e+03  3.228648e+03 0.0 0.0 9.0
 2  1 1 2 103   0 -6.815222e+02  1.645100e+03 -1.044485e+03  2.064407e+03 0.0022 0.0 9.0
#pdf 2 21 5.339825e-01 2.803336e-01 5000.0 5.330172e-02 2.738469e-01
</event>
<event>
4 7 1.0 5000.0 7.905138e-03 7.739137e-02
 2 -1 0 0 101   0  0.000000e+00  0.000000e+00  2.507961e+03  2.507961e+03 0.0 0.0 9.0
21 -1 0 0 103 101  0.000000e+00  0.000000e+00 -2.451799e+03  2.451799e+03 0.0 0.0 9.0
22  1 1 2   0   0  2.331845e+03  7.096129e+02 -4.279800e+02  2.474716e+03 0.0 0.0 9.0
 2  1 1 2 103   0 -2.331845e+03 -7.096129e+02  4.841418e+02  2.485044e+03 0.0022 0.0 9.0
#pdf 2 21 3.858402e-01 3.771999e-01 5000.0 1.555905e-01 1.638740e-01
</event>
<event>
4 7 1.0 5000.0 7.905138e-03 7.739137e-02
 2 -1 0 0 101   0  0.000000e+00  0.000000e+00  4.342565e+03  4.342565e+03 0.0 0.0 9.0
21 -1 0 0 103 101  0.000000e+00  0.000000e+00 -1.444924e+03  1.444924e+03 0.0 0.0 9.0
22  1 1 2   0   0  1.851760e+03  2.946772e+02  3.367607e+03  3.854430e+03 0.0 0.0 9.0
 2  1 1 2 103   0 -1.851760e+03 -2.946772e+02 -4.699670e+02  1.933059e+03 0.0022 0.0 9.0
#pdf 2 21 6.680869e-01 2.222961e-01 5000.0 1.352331e-02 3.512678e-01
</event>
<event>
4 7 1.0 5000.0 7.905138e-03 7.739137e-02
21 -1 0 0 103 101  0.000000e+00  0.000000e+00  2.317353e+03  2.317353e+03 0.0 0.0 9.0
 2 -1 0 0 101   0  0.000000e+00  0.000000e+00 -2.730260e+03  2.730260e+03 0.0 0.0 9.0
22  1 1 2   0   0  2.876839e+02  1.938026e+03 -1.789183e+03  2.653278e+03 0.0 0.0 9.0
 2  1 1 2 103   0 -2.876839e+02 -1.938026e+03  1.376276e+03  2.394336e+03 0.0022 0.0 9.0
#pdf 21 2 3.565159e-01 4.200400e-01 5000.0 1.800268e-02 8.126149e-03
</event>
<event>
4 7 1.0 5000.0 7.905138e-03 7.739137e-02
 2 -1 0 0 101   0  0.000000e+00  0.000000e+00  4.530879e+03  4.530879e+03 0.0 0.0 9.0
21 -1 0 0 103 101  0.000000e+00  0.000000e+00 -1.313024e+03  1.313024e+03 0.0 0.0 9.0
22  1 1 2   0   0  6.635112e+02 -7.209808e+02  4.284744e+03  4.395349e+03 0.0 0.0 9.0
 2  1 1 2 103   0 -6.635112e+02  7.209808e+02 -1.066888e+03  1.448555e+03 0.0022 0.0 9.0
#pdf 2 21 6.970584e-01 2.020037e-01 5000.0 9.316172e-03 3.792677e-01
</event>
<event>
4 7 1.0 5000.0 7.905138e-03 7.739137e-02
21 -1 0 0 103 101  0.000000e+00  0.000000e+00  2.018850e+03  2.018850e+03 0.0 0.0 9.0
 2 -1 0 0 101   0  0.000000e+00  0.000000e+00 -3.066836e+03  3.066836e+03 0.0 0.0 9.0
22  1 1 2   0   0 -1.459840e+03  7.040169e+02 -2.453446e+03  2.940437e+03 0.0 0.0 9.0
 2  1 1 2 103   0  1.459840e+03 -7.040169e+02  1.405461e+03  2.145249e+03 0.0022 0.0 9.0
#pdf 21 2 3.105924e-01 4.718209e-01 5000.0 3.166313e-02 4.133109e-03
</event>
<event>
4 7 1.0 5000.0 7.905138e-03 7.739137e-02
21 -1 0 0 103 101  0.000000e+00  0.000000e+00  3.471804e+03  3.471804e+03 0.0 0.0 9.0
 2 -1 0 0 101   0  0.000000e+00  0.000000e+00 -1.586202e+03  1.586202e+03 0.0 0.0 9.0
 2  1 1 2 103   0  1.074082e+03 -1.375727e+03 -7.477269e+02  1.898782e+03 0.0022 0.0 9.0
22  1 1 2   0   0 -1.074082e+03  1.375727e+03  2.633329e+03  3.159224e+03 0.0 0.0 9.0
#pdf 21 2 5.341237e-01 2.440311e-01 5000.0 1.743205e-03 7.185188e-02
</event>
<event>
4 7 1.0 5000.0 7.905138e-03 7.739137e-02
 2 -1 0 0 101   0  0.000000e+00  0.000000e+00  4.565172e+03  4.565172e+03 0.0 0.0 9.0
21 -1 0 0 103 101  0.000000e+00  0.000000e+00 -1.342202e+03  1.342202e+03 0.0 0.0 9.0
22  1 1 2   0   0 -2.388434e+03 -5.409943e+02  2.041867e+03  3.188497e+03 0.0 0.0 9.0
 2  1 1 2 103   0  2.388434e+03  5.409943e+02  1.181102e+03  2.718877e+03 0.0022 0.0 9.0
#pdf 2 21 7.023341e-01 2.064927e-01 5000.0 8.669207e-03 3.730850e-01
</event>
<event>
4 7 1.0 5000.0 7.905138e-03 7.739137e-02
 2 -1 0 0 101   0  0.000000e+00  0.000000e+00  2.593419e+03  2.593419e+03 0.0 0.0 9.0
21 -1 0 0 103 101  0.000000e+00  0.000000e+00 -2.497076e+03  2.497076e+03 0.0 0.0 9.0
22  1 1 2   0   0  2.295334e+02 -9.700146e+02 -2.293690e+03  2.500926e+03 0.0 0.0 9.0
 2  1 1 2 103   0 -2.295334e+02  9.700146e+02  2.390033e+03  2.589570e+03 0.0022 0.0 9.0
#pdf 2 21 3.989875e-01 3.841656e-01 5000.0 1.434845e-01 1.571759e-01
</event>
<event>
4 7 1.0 5000.0 7.905138e-03 7.739137e-02
 2 -1 0 0 101   0  0.000000e+00  0.000000e+00  1.363374e+03  1.363374e+03 0.0 0.0 9.0
21 -1 0 0 103 101  0.000000e+00  0.000000e+00 -4.165200e+03  4.165200e+03 0.0 0.0 9.0
22  1 1 2   0   0 -2.184806e+03  9.383317e+02 -1.217952e+03  2.671564e+03 0.0 0.0 9.0
 2  1 1 2 103   0  2.184806e+03 -9.383317e+02 -1.583874e+03  2.857009e+03 0.0022 0.0 9.0
#pdf 2 21 2.097498e-01 6.407999e-01 5000.0 3.685569e-01 1.866036e-02
</event>
<event>
4 7 1.0 5000.0 7.905138e-03 7.739137e-02
21 -1 0 0 103 101  0.000000e+00  0.000000e+00  2.395635e+03  2.395635e+03 0.0 0.0 9.0
 2 -1 0 0 101   0  0.000000e+00  0.000000e+00 -2.616584e+03  2.616584e+03 0.0 0.0 9.0
22  1 1 2   0   0 -1.794295e+03 -1.530272e+03 -9.522166e+02  2.543215e+03 0.0 0.0 9.0
 2  1 1 2 103   0  1.794295e+03  1.530272e+03  7.312677e+02  2.469004e+03 0.0022 0.0 9.0
#pdf 21 2 3.685592e-01 4.025514e-01 5000.0 1.551257e-02 1.014846e-02
</event>
<event>
4 7 1.0 5000.0 7.905138e-03 7.739137e-02
21 -1 0 0 103 101  0.000000e+00  0.000000e+00  3.095936e+03  3.095936e+03 0.0 0.0 9.0
 2 -1 0 0 101   0  0.000000e+00  0.000000e+00 -1.810737e+03  1.810737e+03 0.0 0.0 9.0
22  1 1 2   0   0 -1.544845e+03  3.619372e+02 -1.178354e+03  1.976376e+03 0.0 0.0 9.0
 2  1 1 2 103   0  1.544845e+03 -3.619372e+02  2.463553e+03  2.930297e+03 0.0022 0.0 9.0
#pdf 21 2 4.762979e-01 2.785749e-01 5000.0 3.892194e-03 4.683953e-02
</event>
<event>
4 7 1.0 5000.0 7.905138e-03 7.739137e-02
 2 -1 0 0 101   0  0.000000e+00  0.000000e+00  1.691801e+03  1.691801e+03 0.0 0.0 9.0
21 -1 0 0 103 101  0.000000e+00  0.000000e+00 -3.562183e+03  3.562183e+03 0.0 0.0 9.0
 2  1 1 2 103   0  1.831589e+03 -9.597548e+02 -2.351072e+03  3.131036e+03 0.0022 0.0 9.0
22  1 1 2   0   0 -1.831589e+03  9.597548e+02  4.806890e+02  2.122948e+03 0.0 0.0 9.0
#pdf 2 21 2.602770e-01 5.480282e-01 5000.0 2.999382e-01 4.716806e-02
</event>
<event>
4 7 1.0 5000.0 7.905138e-03 7.739137e-02
21 -1 0 0 103 101  0.000000e+00  0.000000e+00  1.589958e+03  1.589958e+03 0.0 0.0 9.0
 2 -1 0 0 101   0  0.000000e+00  0.000000e+00 -3.116404e+03  3.116404e+03 0.0 0.0 9.0
 2  1 1 2 103   0 -1.765355e+02 -2.172809e+03 -1.239159e+03  2.507545e+03 0.0022 0.0 9.0
22  1 1 2   0   0  1.765355e+02  2.172809e+03 -2.872875e+02  2.198818e+03 0.0 0.0 9.0
#pdf 21 2 2.446089e-01 4.794468e-01 5000.0 7.131925e-02 3.730199e-03
</event>
<event>
4 7 1.0 5000.0 7.905138e-03 7.739137e-02
21 -1 0 0 103 101  0.000000e+00  0.000000e+00  2.854219e+03  2.854219e+03 0.0 0.0 9.0
 2 -1 0 0 101   0  0.000000e+00  0.000000e+00 -1.969241e+03  1.969241e+03 0.0 0.0 9.0
22  1 1 2   0   0  5.451659e+02 -2.292043e+03  7.115905e+02  2.461103e+03 0.0 0.0 9.0
 2  1 1 2 103   0 -5.451659e+02  2.292043e+03  1.733875e+02  2.362357e+03 0.0022 0.0 9.0
#pdf 21 2 4.391106e-01 3.029601e-01 5000.0 6.363549e-03 3.475728e-02
</event>
<event>
4 7 1.0 5000.0 7.905138e-03 7.739137e-02
 2 -1 0 0 101   0  0.000000e+00  0.000000e+00  1.913801e+03  1.913801e+03 0.0 0.0 9.0
21 -1 0 0 103 101  0.000000e+00  0.000000e+00 -3.610534e+03  3.610534e+03 0.0 0.0 9.0
22  1 1 2   0   0  1.611646e+03  7.088298e+02  1.202694e+03  2.132209e+03 0.0 0.0 9.0
 2  1 1 2 103   0 -1.611646e+03 -7.088298e+02 -2.899428e+03  3.392127e+03 0.0022 0.0 9.0
#pdf 2 21 2.944309e-01 5.554668e-01 5000.0 2.560605e-01 4.414331e-02
</event>
<event>
4 7 1.0 5000.0 7.905138e-03 7.739137e-02
21 -1 0 0 103 101  0.000000e+00  0.000000e+00  4.050399e+03  4.050399e+03 0.0 0.0 9.0
 2 -1 0 0 101   0  0.000000e+00  0.000000e+00 -1.535397e+03  1.535397e+03 0.0 0.0 9.0
22  1 1 2   0   0 -1.941726e+02  9.336102e+02  3.838146e+03  3.954832e+03 0.0 0.0 9.0
 2  1 1 2 103   0  1.941726e+02 -9.336102e+02 -1.323144e+03  1.630964e+03 0.0022 0.0 9.0
#pdf 21 2 6.231383e-01 2.362149e-01 5000.0 4.398289e-04 7.926738e-02
</event>
<event>
4 7 1.0 5000.0 7.905138e-03 7.739137e-02
 2 -1 0 0 101   0  0.000000e+00  0.000000e+00  2.762394e+03  2.762394e+03 0.0 0.0 9.0
21 -1 0 0 103 101  0.000000e+00  0.000000e+00 -2.333348e+03  2.333348e+03 0.0 0.0 9.0
22  1 1 2   0   0  9.962956e+02  2.218530e+02  2.547415e+03  2.744293e+03 0.0 0.0 9.0
 2  1 1 2 103   0 -9.962956e+02 -2.218530e+02 -2.118369e+03  2.351449e+03 0.0022 0.0 9.0
#pdf 2 21 4.249837e-01 3.589766e-01 5000.0 1.213274e-01 1.822093e-01
</event>
<event>
4 7 1.0 5000.0 7.905138e-03 7.739137e-02
21 -1 0 0 103 101  0.000000e+00  0.000000e+00  1.874623e+03  1.874623e+03 0.0 0.0 9.0
 2 -1 0 0 101   0  0.000000e+00  0.000000e+00 -3.194785e+03  3.194785e+03 0.0 0.0 9.0
22  1 1 2   0   0 -2.107021e+03 -1.009349e+03  9.444178e+01  2.338213e+03 0.0 0.0 9.0
 2  1 1 2 103   0  2.107021e+03  1.009349e+03 -1.414603e+03  2.731195e+03 0.0022 0.0 9.0
#pdf 21 2 2.884036e-01 4.915054e-01 5000.0 4.153394e-02 3.166919e-03
</event>
<event>
4 7 1.0 5000.0 7.905138e-03 7.739137e-02
21 -1 0 0 103 101  0.000000e+00  0.000000e+00  2.500329e+03  2.500329e+03 0.0 0.0 9.0
 2 -1 0 0 101   0  0.000000e+00  0.000000e+00 -2.498768e+03  2.498768e+03 0.0 0.0 9.0
22  1 1 2   0   0 -2.061221e+03 -1.279327e+03 -6.012444e+02  2.499361e+03 0.0 0.0 9.0
 2  1 1 2 103   0  2.061221e+03  1.279327e+03  6.028057e+02  2.499737e+03 0.0022 0.0 9.0
#pdf 21 2 3.846661e-01 3.844259e-01 5000.0 1.271013e-02 1.274863e-02
</event>
<event>
4 7 1.0 5000.0 7.905138e-03 7.739137e-02
21 -1 0 0 103 101  0.000000e+00  0.000000e+00  2.622588e+03  2.622588e+03 0.0 0.0 9.0
 2 -1 0 0 101   0  0.000000e+00  0.000000e+00 -2.473609e+03  2.473609e+03 0.0 0.0 9.0
22  1 1 2   0   0 -2.417616e+03  7.380067e+02  3.872517e+02  2.557242e+03 0.0 0.0 9.0
 2  1 1 2 103   0  2.417616e+03 -7.380067e+02 -2.382725e+02  2.538956e+03 0.0022 0.0 9.0
#pdf 21 2 4.034751e-01 3.805553e-01 5000.0 1.003089e-02 1.338278e-02
</event>
<event>
4 7 1.0 5000.0 7.905138e-03 7.739137e-02
 2 -1 0 0 101   0  0.000000e+00  0.000000e+00  3.741405e+03  3.741405e+03 0.0 0.0 9.0
21 -1 0 0 103 101  0.000000e+00  0.000000e+00 -1.610579e+03  1.610579e+03 0.0 0.0 9.0
 2  1 1 2 103   0  1.624897e+03  2.173346e+02  3.057183e+03  3.468990e+03 0.0022 0.0 9.0
22  1 1 2   0   0 -1.624897e+03 -2.173346e+02 -9.263573e+02  1.882993e+03 0.0 0.0 9.0
#pdf 2 21 5.756007e-01 2.477813e-01 5000.0 3.664037e-02 3.165935e-01
</event>
<event>
4 7 1.0 5000.0 7.905138e-03 7.739137e-02
21 -1 0 0 103 101  0.000000e+00  0.000000e+00  2.128278e+03  2.128278e+03 0.0 0.0 9.0
 2 -1 0 0 101   0  0.000000e+00  0.000000e+00 -2.540219e+03  2.540219e+03 0.0 0.0 9.0
22  1 1 2   0   0  2.222786e+03  6.075404e+02 -5.176822e+02  2.361753e+03 0.0 0.0 9.0
 2  1 1 2 103   0 -2.222786e+03 -6.075404e+02  1.057407e+02  2.306744e+03 0.0022 0.0 9.0
#pdf 21 2 3.274273e-01 3.908030e-01 5000.0 2.574406e-02 1.176397e-02
</event>
<event>
4 7 1.0 5000.0 7.905138e-03 7.739137e-02
 2 -1 0 0 101   0  0.000000e+00  0.000000e+00  1.466064e+03  1.466064e+03 0.0 0.0 9.0
21 -1 0 0 103 101  0.000000e+00  0.000000e+00 -4.150896e+03  4.150896e+03 0.0 0.0 9.0
22  1 1 2   0   0 -8.473203e+02  2.283794e+03 -8.988282e+02  2.596451e+03 0.0 0.0 9.0
 2  1 1 2 103   0  8.473203e+02 -2.283794e+03 -1.786004e+03  3.020509e+03 0.0022 0.0 9.0
#pdf 2 21 2.255484e-01 6.385995e-01 5000.0 3.468202e-01 1.912951e-02
</event>
<event>
4 7 1.0 5000.0 7.905138e-03 7.739137e-02
 2 -1 0 0 101   0  0.000000e+00  0.000000e+00  2.992520e+03  2.992520e+03 0.0 0.0 9.0
21 -1 0 0 103 101  0.000000e+00  0.000000e+00 -2.105198e+03  2.105198e+03 0.0 0.0 9.0
 2  1 1 2 103   0  1.673547e+03  7.891926e+02  2.165906e+03  2.848638e+03 0.0022 0.0 9.0
22  1 1 2   0   0 -1.673547e+03 -7.891926e+02 -1.278585e+03  2.249081e+03 0.0 0.0 9.0
#pdf 2 21 4.603877e-01 3.238767e-01 5000.0 9.496804e-02 2.207447e-01
</event>
<event>
4 7 1.0 5000.0 7.905138e-03 7.739137e-02
21 -1 0 0 103 101  0.000000e+00  0.000000e+00  1.986771e+03  1.986771e+03 0.0 0.0 9.0
 2 -1 0 0 101   0  0.000000e+00  0.000000e+00 -3.192996e+03  3.192996e+03 0.0 0.0 9.0
 2  1 1 2 103   0 -1.822454e+03  1.266080e+03  6.219780e+02  2.304594e+03 0.0022 0.0 9.0
22  1 1 2   0   0  1.822454e+03 -1.266080e+03 -1.828203e+03  2.875173e+03 0.0 0.0 9.0
#pdf 21 2 3.056571e-01 4.912302e-01 5000.0 3.364231e-02 3.178805e-03
</event>
<event>
4 7 1.0 5000.0 7.905138e-03 7.739137e-02
 2 -1 0 0 101   0  0.000000e+00  0.000000e+00  2.226019e+03  2.226019e+03 0.0 0.0 9.0
21 -1 0 0 103 101  0.000000e+00  0.000000e+00 -2.760558e+03  2.760558e+03 0.0 0.0 9.0
 2  1 1 2 103   0 -2.207394e+03 -9.459939e+02 -8.852906e+02  2.559538e+03 0.0022 0.0 9.0
22  1 1 2   0   0  2.207394e+03  9.459939e+02  3.507515e+02  2.427039e+03 0.0 0.0 9.0
#pdf 2 21 3.424644e-01 4.247012e-01 5000.0 1.998259e-01 1.215552e-01
</event>
<event>
4 7 1.0 5000.0 7.905138e-03 7.739137e-02
21 -1 0 0 103 101  0.000000e+00  0.000000e+00  2.485458e+03  2.485458e+03 0.0 0.0 9.0
 2 -1 0 0 101   0  0.000000e+00  0.000000e+00 -2.616398e+03  2.616398e+03 0.0 0.0 9.0
 2  1 1 2 103   0  8.290635e+01  2.508144e+03 -5.187036e+02  2.562560e+03 0.0022 0.0 9.0
22  1 1 2   0   0 -8.290635e+01 -2.508144e+03  3.877637e+02  2.539295e+03 0.0 0.0 9.0
#pdf 21 2 3.823781e-01 4.025227e-01 5000.0 1.308094e-02 1.015213e-02
</event>
<event>
4 7 1.0 5000.0 7.905138e-03 7.739137e-02
 2 -1 0 0 101   0  0.000000e+00  0.000000e+00  4.044000e+03  4.044000e+03 0.0 0.0 9.0
21 -1 0 0 103 101  0.000000e+00  0.000000e+00 -1.622078e+03  1.622078e+03 0.0 0.0 9.0
 2  1 1 2 103   0 -9.422288e+02 -2.184305e+03  1.611748e+02  2.384316e+03 0.0022 0.0 9.0
22  1 1 2   0   0  9.422288e+02  2.184305e+03  2.260747e+03  3.281762e+03 0.0 0.0 9.0
#pdf 2 21 6.221538e-01 2.495505e-01 5000.0 2.291941e-02 3.142049e-01
</event>
<event>
4 7 1.0 5000.0 7.905138e-03 7.739137e-02
21 -1 0 0 103 101  0.000000e+00  0.000000e+00  2.185604e+03  2.185604e+03 0.0 0.0 9.0
 2 -1 0 0 101   0  0.000000e+00  0.000000e+00 -2.795257e+03  2.795257e+03 0.0 0.0 9.0
22  1 1 2   0   0  9.998627e+02 -1.841037e+03  1.016666e+03  2.328681e+03 0.0 0.0 9.0
 2  1 1 2 103   0 -9.998627e+02  1.841037e+03 -1.626320e+03  2.652180e+03 0.0022 0.0 9.0
#pdf 21 2 3.362467e-01 4.300396e-01 5000.0 2.310385e-02 7.147403e-03
</event>
<event>
4 7 1.0 5000.0 7.905138e-03 7.739137e-02
 2 -1 0 0 101   0  0.000000e+00  0.000000e+00  4.937881e+03  4.937881e+03 0.0 0.0 9.0
21 -1 0 0 103 101  0.000000e+00  0.000000e+00 -1.098837e+03  1.098837e+03 0.0 0.0 9.0
22  1 1 2   0   0  7.564077e+02  2.178117e+03  1.490576e+03  2.745571e+03 0.0 0.0 9.0
 2  1 1 2 103   0 -7.564077e+02 -2.178117e+03  2.348469e+03  3.291147e+03 0.0022 0.0 9.0
#pdf 2 21 7.596741e-01 1.690519e-01 5000.0 3.608205e-03 4.244502e-01
</event>
<event>
4 7 1.0 5000.0 7.905138e-03 7.739137e-02
21 -1 0 0 103 101  0.000000e+00  0.000000e+00  3.718294e+03  3.718294e+03 0.0 0.0 9.0
 2 -1 0 0 101   0  0.000000e+00  0.000000e+00 -1.273667e+03  1.273667e+03 0.0 0.0 9.0
 2  1 1 2 103   0 -2.035240e+03  9.996964e+01  2.098559e+03  2.925089e+03 0.0022 0.0 9.0
22  1 1 2   0   0  2.035240e+03 -9.996964e+01  3.460679e+02  2.066872e+03 0.0 0.0 9.0
#pdf 21 2 5.720452e-01 1.959487e-01 5000.0 9.931227e-04 1.326128e-01
</event>
<event>
4 7 1.0 5000.0 7.905138e-03 7.739137e-02
 2 -1 0 0 101   0  0.000000e+00  0.000000e+00  3.092512e+03  3.092512e+03 0.0 0.0 9.0
21 -1 0 0 103 101  0.000000e+00  0.000000e+00 -1.894008e+03  1.894008e+03 0.0 0.0 9.0
22  1 1 2   0   0 -2.211637e+03 -1.230752e+02  1.603765e+03  2.734694e+03 0.0 0.0 9.0
 2  1 1 2 103   0  2.211637e+03  1.230752e+02 -4.052604e+02  2.251827e+03 0.0022 0.0 9.0
#pdf 2 21 4.757711e-01 2.913858e-01 5000.0 8.484607e-02 2.598593e-01
</event>
<event>
4 7 1.0 5000.0 7.905138e-03 7.739137e-02
21 -1 0 0 103 101  0.000000e+00  0.000000e+00  2.472036e+03  2.472036e+03 0.0 0.0 9.0
 2 -1 0 0 101   0  0.000000e+00  0.000000e+00 -2.526144e+03  2.526144e+03 0.0 0.0 9.0
 2  1 1 2 103   0  1.318812e+02  9.116280e+02  2.296068e+03  2.473941e+03 0.0022 0.0 9.0
22  1 1 2   0   0 -1.318812e+02 -9.116280e+02 -2.350176e+03  2.524239e+03 0.0 0.0 9.0
#pdf 21 2 3.803133e-01 3.886376e-01 5000.0 1.342325e-02 1.208935e-02
</event>
<event>
4 7 1.0 5000.0 7.905138e-03 7.739137e-02
21 -1 0 0 103 101  0.000000e+00  0.000000e+00  4.983087e+03  4.983087e+03 0.0 0.0 9.0
 2 -1 0 0 101   0  0.000000e+00  0.000000e+00 -1.282061e+03  1.282061e+03 0.0 0.0 9.0
22  1 1 2   0   0  1.595800e+03 -1.799923e+03  2.812371e+03  3.700774e+03 0.0 0.0 9.0
 2  1 1 2 103   0 -1.595800e+03  1.799923e+03  8.886547e+02  2.564373e+03 0.0022 0.0 9.0
#pdf 21 2 7.666287e-01 1.972402e-01 5000.0 2.467714e-05 1.304076e-01
</event>
<event>
4 7 1.0 5000.0 7.905138e-03 7.739137e-02
 2 -1 0 0 101   0  0.000000e+00  0.000000e+00  2.059604e+03  2.059604e+03 0.0 0.0 9.0
21 -1 0 0 103 101  0.000000e+00  0.000000e+00 -3.139619e+03  3.139619e+03 0.0 0.0 9.0
 2  1 1 2 103   0  1.753839e+02  6.730972e+02  1.960461e+03  2.080199e+03 0.0022 0.0 9.0
22  1 1 2   0   0 -1.753839e+02 -6.730972e+02 -3.040476e+03  3.119025e+03 0.0 0.0 9.0
#pdf 2 21 3.168622e-01 4.830184e-01 5000.0 2.289234e-01 8.034392e-02
</event>
<event>
4 7 1.0 5000.0 7.905138e-03 7.739137e-02
 2 -1 0 0 101   0  0.000000e+00  0.000000e+00  2.846599e+03  2.846599e+03 0.0 0.0 9.0
21 -1 0 0 103 101  0.000000e+00  0.000000e+00 -2.032748e+03  2.032748e+03 0.0 0.0 9.0
22  1 1 2   0   0 -2.079539e+02 -7.904880e+02 -1.887584e+03  2.056961e+03 0.0 0.0 9.0
 2  1 1 2 103   0  2.079539e+02  7.904880e+02  2.701434e+03  2.822386e+03 0.0022 0.0 9.0
#pdf 2 21 4.379383e-01 3.127305e-01 5000.0 1.111972e-01 2.338071e-01
</event>
<event>
4 7 1.0 5000.0 7.905138e-03 7.739137e-02
21 -1 0 0 103 101  0.000000e+00  0.000000e+00  1.207222e+03  1.207222e+03 0.0 0.0 9.0
 2 -1 0 0 101   0  0.000000e+00  0.000000e+00 -4.827831e+03  4.827831e+03 0.0 0.0 9.0
22  1 1 2   0   0  7.259894e+02  2.146803e+03 -7.702090e+02  2.393542e+03 0.0 0.0 9.0
 2  1 1 2 103   0 -7.259894e+02 -2.146803e+03 -2.850399e+03  3.641511e+03 0.0022 0.0 9.0
#pdf 21 2 1.857265e-01 7.427432e-01 5000.0 1.519814e-01 4.347280e-05
</event>
<event>
4 7 1.0 5000.0 7.905138e-03 7.739137e-02
 2 -1 0 0 101   0  0.000000e+00  0.000000e+00  2.970216e+03  2.970216e+03 0.0 0.0 9.0
21 -1 0 0 103 101  0.000000e+00  0.000000e+00 -2.061401e+03  2.061401e+03 0.0 0.0 9.0
 2  1 1 2 103   0 -1.093934e+03  8.900903e+02  2.521595e+03  2.889186e+03 0.0022 0.0 9.0
22  1 1 2   0   0  1.093934e+03 -8.900903e+02 -1.612780e+03  2.142431e+03 0.0 0.0 9.0
#pdf 2 21 4.569564e-01 3.171386e-01 5000.0 9.733965e-02 2.285984e-01
</event>
<event>
4 7 1.0 5000.0 7.905138e-03 7.739137e-02
21 -1 0 0 103 101  0.000000e+00  0.000000e+00  1.779830e+03  1.779830e+03 0.0 0.0 9.0
 2 -1 0 0 101   0  0.000000e+00  0.000000e+00 -3.389683e+03  3.389683e+03 0.0 0.0 9.0
22  1 1 2   0   0  5.855673e+02 -1.180908e+03 -2.985968e+03  3.263961e+03 0.0 0.0 9.0
 2  1 1 2 103   0 -5.855673e+02  1.180908e+03  1.376116e+03  1.905552e+03 0.0022 0.0 9.0
#pdf 21 2 2.738201e-01 5.214896e-01 5000.0 4.965833e-02 2.087231e-03
</event>
<event>
4 7 1.0 5000.0 7.905138e-03 7.739137e-02
21 -1 0 0 103 101  0.000000e+00  0.000000e+00  2.433781e+03  2.433781e+03 0.0 0.0 9.0
 2 -1 0 0 101   0  0.000000e+00  0.000000e+00 -2.494536e+03  2.494536e+03 0.0 0.0 9.0
 2  1 1 2 103   0  2.234742e+03  1.441508e+02  9.974672e+02  2.451488e+03 0.0022 0.0 9.0
22  1 1 2   0   0 -2.234742e+03 -1.441508e+02 -1.058222e+03  2.476829e+03 0.0 0.0 9.0
#pdf 21 2 3.744279e-01 3.837747e-01 5000.0 1.443467e-02 1.285350e-02
</event>
<event>
4 7 1.0 5000.0 7.905138e-03 7.739137e-02
21 -1 0 0 103 101  0.000000e+00  0.000000e+00  2.295570e+03  2.295570e+03 0.0 0.0 9.0
 2 -1 0 0 101   0  0.000000e+00  0.000000e+00 -2.900712e+03  2.900712e+03 0.0 0.0 9.0
22  1 1 2   0   0 -2.428894e+03  7.295427e+01  5.716743e+02  2.496330e+03 0.0 0.0 9.0
 2  1 1 2 103   0  2.428894e+03 -7.295427e+01 -1.176816e+03  2.699953e+03 0.0022 0.0 9.0
#pdf 21 2 3.531647e-01 4.462634e-01 5000.0 1.876951e-02 5.789295e-03
</event>
<event>
4 7 1.0 5000.0 7.905138e-03 7.739137e-02
 2 -1 0 0 101   0  0.000000e+00  0.000000e+00  2.238313e+03  2.238313e+03 0.0 0.0 9.0
21 -1 0 0 103 101  0.000000e+00  0.000000e+00 -2.883340e+03  2.883340e+03 0.0 0.0 9.0
22  1 1 2   0   0 -2.285575e+03 -6.483707e+02 -1.229500e+03  2.675053e+03 0.0 0.0 9.0
 2  1 1 2 103   0  2.285575e+03  6.483707e+02  5.844734e+02  2.446599e+03 0.0022 0.0 9.0
#pdf 2 21 3.443558e-01 4.435907e-01 5000.0 1.977606e-01 1.069431e-01
</event>
<event>
4 7 1.0 5000.0 7.905138e-03 7.739137e-02
 2 -1 0 0 101   0  0.000000e+00  0.000000e+00  3.688865e+03  3.688865e+03 0.0 0.0 9.0
21 -1 0 0 103 101  0.000000e+00  0.000000e+00 -1.345591e+03  1.345591e+03 0.0 0.0 9.0
22  1 1 2   0   0 -1.094467e+03  1.940432e+03  1.144692e+03  2.504687e+03 0.0 0.0 9.0
 2  1 1 2 103   0  1.094467e+03 -1.940432e+03  1.198582e+03  2.529770e+03 0.0022 0.0 9.0
#pdf 2 21 5.675177e-01 2.070140e-01 5000.0 3.953357e-02 3.723633e-01
</event>
<event>
4 7 1.0 5000.0 7.905138e-03 7.739137e-02
 2 -1 0 0 101   0  0.000000e+00  0.000000e+00  2.101571e+03  2.101571e+03 0.0 0.0 9.0
21 -1 0 0 103 101  0.000000e+00  0.000000e+00 -2.943520e+03  2.943520e+03 0.0 0.0 9.0
 2  1 1 2 103   0  1.194733e+02 -1.540900e+03  1.555426e+03  2.192714e+03 0.0022 0.0 9.0
22  1 1 2   0   0 -1.194733e+02  1.540900e+03 -2.397376e+03  2.852377e+03 0.0 0.0 9.0
#pdf 2 21 3.233185e-01 4.528493e-01 5000.0 2.213904e-01 1.002299e-01
</event>
<event>
4 7 1.0 5000.0 7.905138e-03 7.739137e-02
21 -1 0 0 103 101  0.000000e+00  0.000000e+00  2.269873e+03  2.269873e+03 0.0 0.0 9.0
 2 -1 0 0 101   0  0.000000e+00  0.000000e+00 -2.747072e+03  2.747072e+03 0.0 0.0 9.0
22  1 1 2   0   0  1.581343e+03  4.336421e+02 -2.130476e+03  2.688423e+03 0.0 0.0 9.0
 2  1 1 2 103   0 -1.581343e+03 -4.336421e+02  1.653277e+03  2.328522e+03 0.0022 0.0 9.0
#pdf 21 2 3.492113e-01 4.226265e-01 5000.0 1.971023e-02 7.861992e-03
</event>
<event>
4 7 1.0 5000.0 7.905138e-03 7.739137e-02
21 -1 0 0 103 101  0.000000e+00  0.000000e+00  1.938512e+03  1.938512e+03 0.0 0.0 9.0
 2 -1 0 0 101   0  0.000000e+00  0.000000e+00 -3.223300e+03  3.223300e+03 0.0 0.0 9.0
 2  1 1 2 103   0  2.290138e+03 -1.000323e+03 -6.991924e+02  2.595043e+03 0.0022 0.0 9.0
22  1 1 2   0   0 -2.290138e+03  1.000323e+03 -5.855964e+02  2.566769e+03 0.0 0.0 9.0
#pdf 21 2 2.982326e-01 4.958924e-01 5000.0 3.682481e-02 2.982680e-03
</event>
<event>
4 7 1.0 5000.0 7.905138e-03 7.739137e-02
 2 -1 0 0 101   0  0.000000e+00  0.000000e+00  2.388773e+03  2.388773e+03 0.0 0.0 9.0
21 -1 0 0 103 101  0.000000e+00  0.000000e+00 -2.532211e+03  2.532211e+03 0.0 0.0 9.0
22  1 1 2   0   0  1.667473e+03  1.667993e+03  6.258640e+02  2.440158e+03 0.0 0.0 9.0
 2  1 1 2 103   0 -1.667473e+03 -1.667993e+03 -7.693026e+02  2.480825e+03 0.0022 0.0 9.0
#pdf 2 21 3.675035e-01 3.895709e-01 5000.0 1.734775e-01 1.520951e-01
</event>
<event>
4 7 1.0 5000.0 7.905138e-03 7.739137e-02
 2 -1 0 0 101   0  0.000000e+00  0.000000e+00  2.120372e+03  2.120372e+03 0.0 0.0 9.0
21 -1 0 0 103 101  0.000000e+00  0.000000e+00 -2.934043e+03  2.934043e+03 0.0 0.0 9.0
22  1 1 2   0   0 -2.176897e+02  6.754711e+02  2.015917e+03  2.137188e+03 0.0 0.0 9.0
 2  1 1 2 103   0  2.176897e+02 -6.754711e+02 -2.829588e+03  2.917228e+03 0.0022 0.0 9.0
#pdf 2 21 3.262111e-01 4.513913e-01 5000.0 2.180541e-01 1.012670e-01
</event>
<event>
4 7 1.0 5000.0 7.905138e-03 7.739137e-02
21 -1 0 0 103 101  0.000000e+00  0.000000e+00  2.920240e+03  2.920240e+03 0.0 0.0 9.0
 2 -1 0 0 101   0  0.000000e+00  0.000000e+00 -2.182251e+03  2.182251e+03 0.0 0.0 9.0
22  1 1 2   0   0  1.450152e+03 -2.066337e+03  3.671079e+02  2.550972e+03 0.0 0.0 9.0
 2  1 1 2 103   0 -1.450152e+03  2.066337e+03  3.708808e+02  2.551518e+03 0.0022 0.0 9.0
#pdf 21 2 4.492676e-01 3.357309e-01 5000.0 5.569360e-03 2.325123e-02
</event>
<event>
4 7 1.0 5000.0 7.905138e-03 7.739137e-02
21 -1 0 0 103 101  0.000000e+00  0.000000e+00  3.106405e+03  3.106405e+03 0.0 0.0 9.0
 2 -1 0 0 101   0  0.000000e+00  0.000000e+00 -1.825637e+03  1.825637e+03 0.0 0.0 9.0
 2  1 1 2 103   0 -1.972688e+03 -5.368859e+02 -6.242374e+02  2.137620e+03 0.0022 0.0 9.0
22  1 1 2   0   0  1.972688e+03  5.368859e+02  1.905006e+03  2.794422e+03 0.0 0.0 9.0
#pdf 21 2 4.779084e-01 2.808672e-01 5000.0 3.808589e-03 4.553546e-02
</event>
<event>
4 7 1.0 5000.0 7.905138e-03 7.739137e-02
 2 -1 0 0 101   0  0.000000e+00  0.000000e+00  3.669302e+03  3.669302e+03 0.0 0.0 9.0
21 -1 0 0 103 101  0.000000e+00  0.000000e+00 -1.764214e+03  1.764214e+03 0.0 0.0 9.0
 2  1 1 2 103   0 -1.598255e+02  2.528522e+03  7.033401e+02  2.629383e+03 0.0022 0.0 9.0
22  1 1 2   0   0  1.598255e+02 -2.528522e+03  1.201748e+03  2.804133e+03 0.0 0.0 9.0
#pdf 2 21 5.645080e-01 2.714175e-01 5000.0 4.065574e-02 2.853422e-01
</event>
<event>
4 7 1.0 5000.0 7.905138e-03 7.739137e-02
 2 -1 0 0 101   0  0.000000e+00  0.000000e+00  1.818314e+03  1.818314e+03 0.0 0.0 9.0
21 -1 0 0 103 101  0.000000e+00  0.000000e+00 -3.432631e+03  3.432631e+03 0.0 0.0 9.0
 2  1 1 2 103   0  1.148023e+03  1.861688e+03  4.616709e+02  2.235392e+03 0.0022 0.0 9.0
22  1 1 2   0   0 -1.148023e+03 -1.861688e+03 -2.075988e+03  3.015554e+03 0.0 0.0 9.0
#pdf 2 21 2.797407e-01 5.280971e-01 5000.0 2.746046e-01 5.603553e-02
</event>
<event>
4 7 1.0 5000.0 7.905138e-03 7.739137e-02
21 -1 0 0 103 101  0.000000e+00  0.000000e+00  3.233281e+03  3.233281e+03 0.0 0.0 9.0
 2 -1 0 0 101   0  0.000000e+00  0.000000e+00 -1.819650e+03  1.819650e+03 0.0 0.0 9.0
 2  1 1 2 103   0 -1.266464e+03  1.619603e+03 -6.337238e+02  2.151430e+03 0.0022 0.0 9.0
22  1 1 2   0   0  1.266464e+03 -1.619603e+03  2.047354e+03  2.901501e+03 0.0 0.0 9.0
#pdf 21 2 4.974278e-01 2.799462e-01 5000.0 2.920384e-03 4.605534e-02
</event>
<event>
4 7 1.0 5000.0 7.905138e-03 7.739137e-02
21 -1 0 0 103 101  0.000000e+00  0.000000e+00  2.473640e+03  2.473640e+03 0.0 0.0 9.0
 2 -1 0 0 101   0  0.000000e+00  0.000000e+00 -2.492417e+03  2.492417e+03 0.0 0.0 9.0
 2  1 1 2 103   0 -1.865637e+03  1.466226e+03  7.219987e+02  2.480263e+03 0.0022 0.0 9.0
22  1 1 2   0   0  1.865637e+03 -1.466226e+03 -7.407757e+02  2.485794e+03 0.0 0.0 9.0
#pdf 21 2 3.805599e-01 3.834487e-01 5000.0 1.338199e-02 1.290629e-02
</event>
<event>
4 7 1.0 5000.0 7.905138e-03 7.739137e-02
21 -1 0 0 103 101  0.000000e+00  0.000000e+00  1.243420e+03  1.243420e+03 0.0 0.0 9.0
 2 -1 0 0 101   0  0.000000e+00  0.000000e+00 -5.047463e+03  5.047463e+03 0.0 0.0 9.0
22  1 1 2   0   0  7.319304e+02  1.717023e+03  1.960065e+02  1.876781e+03 0.0 0.0 9.0
 2  1 1 2 103   0 -7.319304e+02 -1.717023e+03 -4.000050e+03  4.414101e+03 0.0022 0.0 9.0
#pdf 21 2 1.912953e-01 7.765328e-01 5000.0 1.410007e-01 1.919708e-05
</event>
<event>
4 7 1.0 5000.0 7.905138e-03 7.739137e-02
21 -1 0 0 103 101  0.000000e+00  0.000000e+00  2.028174e+03  2.028174e+03 0.0 0.0 9.0
 2 -1 0 0 101   0  0.000000e+00  0.000000e+00 -3.140433e+03  3.140433e+03 0.0 0.0 9.0
22  1 1 2   0   0  1.301906e+02  2.249418e+03  6.080339e+02  2.333781e+03 0.0 0.0 9.0
 2  1 1 2 103   0 -1.301906e+02 -2.249418e+03 -1.720293e+03  2.834826e+03 0.0022 0.0 9.0
#pdf 21 2 3.120268e-01 4.831436e-01 5000.0 3.110593e-02 3.547703e-03
</event>
<event>
4 7 1.0 5000.0 7.905138e-03 7.739137e-02
 2 -1 0 0 101   0  0.000000e+00  0.000000e+00  2.162628e+03  2.162628e+03 0.0 0.0 9.0
21 -1 0 0 103 101  0.000000e+00  0.000000e+00 -2.870791e+03  2.870791e+03 0.0 0.0 9.0
 2  1 1 2 103   0  3.382639e+02 -1.858123e+03  1.287488e+03  2.285753e+03 0.0022 0.0 9.0
22  1 1 2   0   0 -3.382639e+02  1.858123e+03 -1.995650e+03  2.747665e+03 0.0 0.0 9.0
#pdf 2 21 3.327120e-01 4.416601e-01 5000.0 2.106548e-01 1.083867e-01
</event>
<event>
4 7 1.0 5000.0 7.905138e-03 7.739137e-02
 2 -1 0 0 101   0  0.000000e+00  0.000000e+00  2.195348e+03  2.195348e+03 0.0 0.0 9.0
21 -1 0 0 103 101  0.000000e+00  0.000000e+00 -2.772941e+03  2.772941e+03 0.0 0.0 9.0
 2  1 1 2 103   0  4.334911e+02  2.183082e+03 -1.360870e+03  2.608780e+03 0.0022 0.0 9.0
22  1 1 2   0   0 -4.334911e+02 -2.183082e+03  7.832763e+02  2.359510e+03 0.0 0.0 9.0
#pdf 2 21 3.377458e-01 4.266064e-01 5000.0 2.050276e-01 1.200245e-01
</event>
<event>
4 7 1.0 5000.0 7.905138e-03 7.739137e-02
 2 -1 0 0 101   0  0.000000e+00  0.000000e+00  1.746612e+03  1.746612e+03 0.0 0.0 9.0
21 -1 0 0 103 101  0.000000e+00  0.000000e+00 -3.550577e+03  3.550577e+03 0.0 0.0 9.0
22  1 1 2   0   0  2.248341e+03  1.021535e+03 -5.607928e+02  2.532402e+03 0.0 0.0 9.0
 2  1 1 2 103   0 -2.248341e+03 -1.021535e+03 -1.243173e+03  2.764787e+03 0.0022 0.0 9.0
#pdf 2 21 2.687095e-01 5.462426e-01 5000.0 2.888712e-01 4.792045e-02
</event>
<event>
4 7 1.0 5000.0 7.905138e-03 7.739137e-02
21 -1 0 0 103 101  0.000000e+00  0.000000e+00  1.627871e+03  1.627871e+03 0.0 0.0 9.0
 2 -1 0 0 101   0  0.000000e+00  0.000000e+00 -3.865285e+03  3.865285e+03 0.0 0.0 9.0
22  1 1 2   0   0  2.491373e+03  2.860743e+02 -1.182642e+03  2.772619e+03 0.0 0.0 9.0
 2  1 1 2 103   0 -2.491373e+03 -2.860743e+02 -1.054772e+03  2.720537e+03 0.0022 0.0 9.0
#pdf 21 2 2.504417e-01 5.946592e-01 5000.0 6.637453e-02 6.985992e-04
</event>
<event>
4 7 1.0 5000.0 7.905138e-03 7.739137e-02
 2 -1 0 0 101   0  0.000000e+00  0.000000e+00  4.265532e+03  4.265532e+03 0.0 0.0 9.0
21 -1 0 0 103 101  0.000000e+00  0.000000e+00 -1.423969e+03  1.423969e+03 0.0 0.0 9.0
22  1 1 2   0   0 -2.441144e+03 -3.222916e+02  1.541433e+03  2.905009e+03 0.0 0.0 9.0
 2  1 1 2 103   0  2.441144e+03  3.222916e+02  1.300130e+03  2.784492e+03 0.0022 0.0 9.0
#pdf 2 21 6.562356e-01 2.190721e-01 5000.0 1.561454e-02 3.556845e-01
</event>
<event>
4 7 1.0 5000.0 7.905138e-03 7.739137e-02
21 -1 0 0 103 101  0.000000e+00  0.000000e+00  2.619782e+03  2.619782e+03 0.0 0.0 9.0
 2 -1 0 0 101   0  0.000000e+00  0.000000e+00 -2.493345e+03  2.493345e+03 0.0 0.0 9.0
 2  1 1 2 103   0  2.475686e+03  2.316684e+02 -5.280020e+02  2.541944e+03 0.0022 0.0 9.0
22  1 1 2   0   0 -2.475686e+03 -2.316684e+02  6.544390e+02  2.571183e+03 0.0 0.0 9.0
#pdf 21 2 4.030434e-01 3.835915e-01 5000.0 1.008569e-02 1.288314e-02
</event>
<event>
4 7 1.0 5000.0 7.905138e-03 7.739137e-02
 2 -1 0 0 101   0  0.000000e+00  0.000000e+00  3.797384e+03  3.797384e+03 0.0 0.0 9.0
21 -1 0 0 103 101  0.000000e+00  0.000000e+00 -1.492507e+03  1.492507e+03 0.0 0.0 9.0
22  1 1 2   0   0 -8.817772e+02  1.639858e+03 -4.958075e+02  1.926782e+03 0.0 0.0 9.0
 2  1 1 2 103   0  8.817772e+02 -1.639858e+03  2.800685e+03  3.363109e+03 0.0022 0.0 9.0
#pdf 2 21 5.842129e-01 2.296164e-01 5000.0 3.373783e-02 3.412550e-01
</event>
<event>
4 7 1.0 5000.0 7.905138e-03 7.739137e-02
 2 -1 0 0 101   0  0.000000e+00  0.000000e+00  2.049733e+03  2.049733e+03 0.0 0.0 9.0
21 -1 0 0 103 101  0.000000e+00  0.000000e+00 -3.084465e+03  3.084465e+03 0.0 0.0 9.0
22  1 1 2   0   0  8.112436e+01 -2.338033e+03 -1.458276e+03  2.756727e+03 0.0 0.0 9.0
 2  1 1 2 103   0 -8.112436e+01  2.338033e+03  4.235435e+02  2.377471e+03 0.0022 0.0 9.0
#pdf 2 21 3.153435e-01 4.745331e-01 5000.0 2.307123e-01 8.563283e-02
</event>
<event>
4 7 1.0 5000.0 7.905138e-03 7.739137e-02
21 -1 0 0 103 101  0.000000e+00  0.000000e+00  2.921837e+03  2.921837e+03 0.0 0.0 9.0
 2 -1 0 0 101   0  0.000000e+00  0.000000e+00 -2.117120e+03  2.117120e+03 0.0 0.0 9.0
 2  1 1 2 103   0 -2.210992e+03  1.109983e+03  6.612806e+02  2.560828e+03 0.0022 0.0 9.0
22  1 1 2   0   0  2.210992e+03 -1.109983e+03  1.434365e+02  2.478128e+03 0.0 0.0 9.0
#pdf 21 2 4.495133e-01 3.257107e-01 5000.0 5.551865e-03 2.629019e-02
</event>
<event>
4 7 1.0 5000.0 7.905138e-03 7.739137e-02
21 -1 0 0 103 101  0.000000e+00  0.000000e+00  2.176690e+03  2.176690e+03 0.0 0.0 9.0
 2 -1 0 0 101   0  0.000000e+00  0.000000e+00 -2.873211e+03  2.873211e+03 0.0 0.0 9.0
 2  1 1 2 103   0 -5.554473e+02 -2.432549e+03 -1.784899e+02  2.501534e+03 0.0022 0.0 9.0
22  1 1 2   0   0  5.554473e+02  2.432549e+03 -5.180311e+02  2.548366e+03 0.0 0.0 9.0
#pdf 21 2 3.348754e-01 4.420324e-01 5000.0 2.349751e-02 6.125483e-03
</event>
<event>
4 7 1.0 5000.0 7.905138e-03 7.739137e-02
21 -1 0 0 103 101  0.000000e+00  0.000000e+00  2.585209e+03  2.585209e+03 0.0 0.0 9.0
 2 -1 0 0 101   0  0.000000e+00  0.000000e+00 -2.179137e+03  2.179137e+03 0.0 0.0 9.0
 2  1 1 2 103   0 -2.052008e+03 -2.355681e+02 -9.705486e+02  2.282147e+03 0.0022 0.0 9.0
22  1 1 2   0   0  2.052008e+03  2.355681e+02  1.376621e+03  2.482200e+03 0.0 0.0 9.0
#pdf 21 2 3.977245e-01 3.352518e-01 5000.0 1.078389e-02 2.338887e-02
</event>
<event>
4 7 1.0 5000.0 7.905138e-03 7.739137e-02
 2 -1 0 0 101   0  0.000000e+00  0.000000e+00  2.251999e+03  2.251999e+03 0.0 0.0 9.0
21 -1 0 0 103 101  0.000000e+00  0.000000e+00 -2.607953e+03  2.607953e+03 0.0 0.0 9.0
22  1 1 2   0   0  1.986277e+02 -1.246799e+03  1.896204e+03  2.278058e+03 0.0 0.0 9.0
 2  1 1 2 103   0 -1.986277e+02  1.246799e+03 -2.252157e+03  2.581893e+03 0.0022 0.0 9.0
#pdf 2 21 3.464614e-01 4.012235e-01 5000.0 1.954752e-01 1.414836e-01
</event>
<event>
4 7 1.0 5000.0 7.905138e-03 7.739137e-02
 2 -1 0 0 101   0  0.000000e+00  0.000000e+00  2.229199e+03  2.229199e+03 0.0 0.0 9.0
21 -1 0 0 103 101  0.000000e+00  0.000000e+00 -2.572927e+03  2.572927e+03 0.0 0.0 9.0
22  1 1 2   0   0 -4.261821e+02  2.237067e+03 -9.150280e+02  2.454257e+03 0.0 0.0 9.0
 2  1 1 2 103   0  4.261821e+02 -2.237067e+03  5.713004e+02  2.347868e+03 0.0022 0.0 9.0
#pdf 2 21 3.429537e-01 3.958349e-01 5000.0 1.992906e-01 1.463351e-01
</event>
<event>
4 7 1.0 5000.0 7.905138e-03 7.739137e-02
 2 -1 0 0 101   0  0.000000e+00  0.000000e+00  1.612019e+03  1.612019e+03 0.0 0.0 9.0
21 -1 0 0 103 101  0.000000e+00  0.000000e+00 -3.090910e+03  3.090910e+03 0.0 0.0 9.0
 2  1 1 2 103   0 -8.305388e+02  6.900523e+02  1.318579e+03  1.704294e+03 0.0022 0.0 9.0
22  1 1 2   0   0  8.305388e+02 -6.900523e+02 -2.797471e+03  2.998635e+03 0.0 0.0 9.0
#pdf 2 21 2.480029e-01 4.755247e-01 5000.0 3.162937e-01 8.500228e-02
</event>
<event>
4 7 1.0 5000.0 7.905138e-03 7.739137e-02
21 -1 0 0 103 101  0.000000e+00  0.000000e+00  1.765630e+03  1.765630e+03 0.0 0.0 9.0
 2 -1 0 0 101   0  0.000000e+00  0.000000e+00 -3.481385e+03  3.481385e+03 0.0 0.0 9.0
 2  1 1 2 103   0 -1.066176e+03 -2.050793e+03 -1.806909e+03  2.933838e+03 0.0022 0.0 9.0
22  1 1 2   0   0  1.066176e+03  2.050793e+03  9.115417e+01  2.313178e+03 0.0 0.0 9.0
#pdf 21 2 2.716354e-01 5.355977e-01 5000.0 5.100935e-02 1.705962e-03
</event>
<event>
4 7 1.0 5000.0 7.905138e-03 7.739137e-02
21 -1 0 0 103 101  0.000000e+00  0.000000e+00  3.465515e+03  3.465515e+03 0.0 0.0 9.0
 2 -1 0 0 101   0  0.000000e+00  0.000000e+00 -1.796903e+03  1.796903e+03 0.0 0.0 9.0
22  1 1 2   0   0 -2.048765e+03  7.455019e+02 -4.458272e+02  2.225303e+03 0.0 0.0 9.0
 2  1 1 2 103   0  2.048765e+03 -7.455019e+02  2.114439e+03  3.037115e+03 0.0022 0.0 9.0
#pdf 21 2 5.331561e-01 2.764466e-01 5000.0 1.767907e-03 4.808149e-02
</event>
<event>
4 7 1.0 5000.0 7.905138e-03 7.739137e-02
21 -1 0 0 103 101  0.000000e+00  0.000000e+00  1.740494e+03  1.740494e+03 0.0 0.0 9.0
 2 -1 0 0 101   0  0.000000e+00  0.000000e+00 -3.675639e+03  3.675639e+03 0.0 0.0 9.0
22  1 1 2   0   0  2.258756e+03  8.919528e+02 -2.105899e+02  2.437602e+03 0.0 0.0 9.0
 2  1 1 2 103   0 -2.258756e+03 -8.919528e+02 -1.724555e+03  2.978531e+03 0.0022 0.0 9.0
#pdf 21 2 2.677684e-01 5.654830e-01 5000.0 5.349546e-02 1.098423e-03
</event>
<event>
4 7 1.0 5000.0 7.905138e-03 7.739137e-02
21 -1 0 0 103 101  0.000000e+00  0.000000e+00  2.815387e+03  2.815387e+03 0.0 0.0 9.0
 2 -1 0 0 101   0  0.000000e+00  0.000000e+00 -2.271020e+03  2.271020e+03 0.0 0.0 9.0
 2  1 1 2 103   0 -5.325248e+02 -2.420235e+03  7.777600e+02  2.597312e+03 0.0022 0.0 9.0
22  1 1 2   0   0  5.325248e+02  2.420235e+03 -2.333931e+02  2.489094e+03 0.0 0.0 9.0
#pdf 21 2 4.331364e-01 3.493877e-01 5000.0 6.870159e-03 1.966750e-02
</event>
<event>
4 7 1.0 5000.0 7.905138e-03 7.739137e-02
21 -1 0 0 103 101  0.000000e+00  0.000000e+00  2.085317e+03  2.085317e+03 0.0 0.0 9.0
 2 -1 0 0 101   0  0.000000e+00  0.000000e+00 -3.012576e+03  3.012576e+03 0.0 0.0 9.0
22  1 1 2   0   0 -6.373403e+02 -2.404340e+03 -7.772777e+02  2.605996e+03 0.0 0.0 9.0
 2  1 1 2 103   0  6.373403e+02  2.404340e+03 -1.499817e+02  2.491897e+03 0.0022 0.0 9.0
#pdf 21 2 3.208180e-01 4.634733e-01 5000.0 2.791183e-02 4.617720e-03
</event>
<event>
4 7 1.0 5000.0 7.905138e-03 7.739137e-02
21 -1 0 0 103 101  0.000000e+00  0.000000e+00  2.661309e+03  2.661309e+03 0.0 0.0 9.0
 2 -1 0 0 101   0  0.000000e+00  0.000000e+00 -2.564327e+03  2.564327e+03 0.0 0.0 9.0
 2  1 1 2 103   0  1.441588e+03  4.741776e+02  2.175226e+03  2.652287e+03 0.0022 0.0 9.0
22  1 1 2   0   0 -1.441588e+03 -4.741776e+02 -2.078244e+03  2.573348e+03 0.0 0.0 9.0
#pdf 21 2 4.094321e-01 3.945118e-01 5000.0 9.300828e-03 1.122803e-02
</event>
<event>
4 7 1.0 5000.0 7.905138e-03 7.739137e-02
 2 -1 0 0 101   0  0.000000e+00  0.000000e+00  3.778901e+03  3.778901e+03 0.0 0.0 9.0
21 -1 0 0 103 101  0.000000e+00  0.000000e+00 -1.667662e+03  1.667662e+03 0.0 0.0 9.0
22  1 1 2   0   0 -1.761375e+03  1.417019e+03  2.239781e+03  3.182295e+03 0.0 0.0 9.0
 2  1 1 2 103   0  1.761375e+03 -1.417019e+03 -1.285422e+02  2.264267e+03 0.0022 0.0 9.0
#pdf 2 21 5.813693e-01 2.565634e-01 5000.0 3.467675e-02 3.048446e-01
</event>
<event>
4 7 1.0 5000.0 7.905138e-03 7.739137e-02
21 -1 0 0 103 101  0.000000e+00  0.000000e+00  2.940934e+03  2.940934e+03 0.0 0.0 9.0
 2 -1 0 0 101   0  0.000000e+00  0.000000e+00 -2.073099e+03  2.073099e+03 0.0 0.0 9.0
 2  1 1 2 103   0 -3.217498e+02 -5.048807e+02 -1.998290e+03  2.086047e+03 0.0022 0.0 9.0
22  1 1 2   0   0  3.217498e+02  5.048807e+02  2.866125e+03  2.927986e+03 0.0 0.0 9.0
#pdf 21 2 4.524514e-01 3.189383e-01 5000.0 5.344500e-03 2.856219e-02
</event>
<event>
4 7 1.0 5000.0 7.905138e-03 7.739137e-02
21 -1 0 0 103 101  0.000000e+00  0.000000e+00  4.434531e+03  4.434531e+03 0.0 0.0 9.0
 2 -1 0 0 101   0  0.000000e+00  0.000000e+00 -1.330258e+03  1.330258e+03 0.0 0.0 9.0
 2  1 1 2 103   0 -1.282807e+03  1.841613e+03  4.503433e+02  2.289091e+03 0.0022 0.0 9.0
22  1 1 2   0   0  1.282807e+03 -1.841613e+03  2.653929e+03  3.475697e+03 0.0 0.0 9.0
#pdf 21 2 6.822355e-01 2.046551e-01 5000.0 1.531527e-04 1.183675e-01
</event>
<event>
4 7 1.0 5000.0 7.905138e-03 7.739137e-02
21 -1 0 0 103 101  0.000000e+00  0.000000e+00  2.278199e+03  2.278199e+03 0.0 0.0 9.0
 2 -1 0 0 101   0  0.000000e+00  0.000000e+00 -2.649435e+03  2.649435e+03 0.0 0.0 9.0
 2  1 1 2 103   0  2.309757e+03 -4.048957e+02  5.492883e+02  2.408451e+03 0.0022 0.0 9.0
22  1 1 2   0   0 -2.309757e+03  4.048957e+02 -9.205246e+02  2.519183e+03 0.0 0.0 9.0
#pdf 21 2 3.504921e-01 4.076054e-01 5000.0 1.940165e-02 9.519726e-03
</event>
<event>
4 7 1.0 5000.0 7.905138e-03 7.739137e-02
21 -1 0 0 103 101  0.000000e+00  0.000000e+00  2.044535e+03  2.044535e+03 0.0 0.0 9.0
 2 -1 0 0 101   0  0.000000e+00  0.000000e+00 -2.973784e+03  2.973784e+03 0.0 0.0 9.0
 2  1 1 2 103   0 -6.583724e+01  2.338677e+03 -1.256954e+03  2.655877e+03 0.0022 0.0 9.0
22  1 1 2   0   0  6.583724e+01 -2.338677e+03  3.277056e+02  2.362443e+03 0.0 0.0 9.0
#pdf 21 2 3.145439e-01 4.575053e-01 5000.0 3.015109e-02 4.998992e-03
</event>
<event>
4 7 1.0 5000.0 7.905138e-03 7.739137e-02
21 -1 0 0 103 101  0.000000e+00  0.000000e+00  4.165225e+03  4.165225e+03 0.0 0.0 9.0
 2 -1 0 0 101   0  0.000000e+00  0.000000e+00 -1.531610e+03  1.531610e+03 0.0 0.0 9.0
22  1 1 2   0   0 -2.058659e+03 -1.417518e+03  9.069710e+02  2.658953e+03 0.0 0.0 9.0
 2  1 1 2 103   0  2.058659e+03  1.417518e+03  1.726644e+03  3.037883e+03 0.0022 0.0 9.0
#pdf 21 2 6.408039e-01 2.356324e-01 5000.0 3.254883e-04 7.984233e-02
</event>
<event>
4 7 1.0 5000.0 7.905138e-03 7.739137e-02
 2 -1 0 0 101   0  0.000000e+00  0.000000e+00  2.772542e+03  2.772542e+03 0.0 0.0 9.0
21 -1 0 0 103 101  0.000000e+00  0.000000e+00 -1.806251e+03  1.806251e+03 0.0 0.0 9.0
 2  1 1 2 103   0 -2.130803e+03 -6.678324e+02  3.328488e+02  2.257678e+03 0.0022 0.0 9.0
22  1 1 2   0   0  2.130803e+03  6.678324e+02  6.334419e+02  2.321114e+03 0.0 0.0 9.0
#pdf 2 21 4.265449e-01 2.778848e-01 5000.0 1.200737e-01 2.769829e-01
</event>
<event>
4 7 1.0 5000.0 7.905138e-03 7.739137e-02
21 -1 0 0 103 101  0.000000e+00  0.000000e+00  1.654860e+03  1.654860e+03 0.0 0.0 9.0
 2 -1 0 0 101   0  0.000000e+00  0.000000e+00 -3.795231e+03  3.795231e+03 0.0 0.0 9.0
22  1 1 2   0   0 -3.924439e+02  4.985606e+02  1.566079e+03  1.689727e+03 0.0 0.0 9.0
 2  1 1 2 103   0  3.924439e+02 -4.985606e+02 -3.706449e+03  3.760365e+03 0.0022 0.0 9.0
#pdf 21 2 2.545939e-01 5.838817e-01 5000.0 6.303701e-02 8.276189e-04
</event>
<event>
4 7 1.0 5000.0 7.905138e-03 7.739137e-02
 2 -1 0 0 101   0  0.000000e+00  0.000000e+00  3.101914e+03  3.101914e+03 0.0 0.0 9.0
21 -1 0 0 103 101  0.000000e+00  0.000000e+00 -2.085495e+03  2.085495e+03 0.0 0.0 9.0
 2  1 1 2 103   0 -1.997853e+03 -2.173516e+02 -1.081570e+03  2.282203e+03 0.0022 0.0 9.0
22  1 1 2   0   0  1.997853e+03  2.173516e+02  2.097990e+03  2.905206e+03 0.0 0.0 9.0
#pdf 2 21 4.772176e-01 3.208453e-01 5000.0 8.393328e-02 2.242626e-01
</event>
<event>
4 7 1.0 5000.0 7.905138e-03 7.739137e-02
 2 -1 0 0 101   0  0.000000e+00  0.000000e+00  1.520905e+03  1.520905e+03 0.0 0.0 9.0
21 -1 0 0 103 101  0.000000e+00  0.000000e+00 -4.142304e+03  4.142304e+03 0.0 0.0 9.0
22  1 1 2   0   0 -4.584362e+02 -1.159643e+03  1.146746e+03  1.694096e+03 0.0 0.0 9.0
 2  1 1 2 103   0  4.584362e+02  1.159643e+03 -3.768146e+03  3.969113e+03 0.0022 0.0 9.0
#pdf 2 21 2.339854e-01 6.372776e-01 5000.0 3.352662e-01 1.941545e-02
</event>
<event>
4 7 1.0 5000.0 7.905138e-03 7.739137e-02
21 -1 0 0 103 101  0.000000e+00  0.000000e+00  2.162607e+03  2.162607e+03 0.0 0.0 9.0
 2 -1 0 0 101   0  0.000000e+00  0.000000e+00 -2.897293e+03  2.897293e+03 0.0 0.0 9.0
22  1 1 2   0   0 -1.984120e+03 -9.859308e+02 -1.544687e+03  2.700898e+03 0.0 0.0 9.0
 2  1 1 2 103   0  1.984120e+03  9.859308e+02  8.100013e+02  2.359003e+03 0.0022 0.0 9.0
#pdf 21 2 3.327088e-01 4.457374e-01 5000.0 2.413154e-02 5.829744e-03
</event>
<event>
4 7 1.0 5000.0 7.905138e-03 7.739137e-02
21 -1 0 0 103 101  0.000000e+00  0.000000e+00  3.308206e+03  3.308206e+03 0.0 0.0 9.0
 2 -1 0 0 101   0  0.000000e+00  0.000000e+00 -1.862119e+03  1.862119e+03 0.0 0.0 9.0
 2  1 1 2 103   0 -1.129857e+03  6.856320e+02  2.911231e+03  3.197176e+03 0.0022 0.0 9.0
22  1 1 2   0   0  1.129857e+03 -6.856320e+02 -1.465144e+03  1.973149e+03 0.0 0.0 9.0
#pdf 21 2 5.089547e-01 2.864798e-01 5000.0 2.489362e-03 4.251307e-02
</event>
<event>
4 7 1.0 5000.0 7.905138e-03 7.739137e-02
 2 -1 0 0 101   0  0.000000e+00  0.000000e+00  3.191469e+03  3.191469e+03 0.0 0.0 9.0
21 -1 0 0 103 101  0.000000e+00  0.000000e+00 -1.995109e+03  1.995109e+03 0.0 0.0 9.0
 2  1 1 2 103   0  1.998339e+03  1.741236e+02  2.171505e+03  2.956199e+03 0.0022 0.0 9.0
22  1 1 2   0   0 -1.998339e+03 -1.741236e+02 -9.751456e+02  2.230379e+03 0.0 0.0 9.0
#pdf 2 21 4.909952e-01 3.069399e-01 5000.0 7.558513e-02 2.407432e-01
</event>
<event>
4 7 1.0 5000.0 7.905138e-03 7.739137e-02
21 -1 0 0 103 101  0.000000e+00  0.000000e+00  3.032466e+03  3.032466e+03 0.0 0.0 9.0
 2 -1 0 0 101   0  0.000000e+00  0.000000e+00 -2.051088e+03  2.051088e+03 0.0 0.0 9.0
 2  1 1 2 103   0  9.720660e+02 -1.799246e+03 -9.641429e+02  2.260922e+03 0.0022 0.0 9.0
22  1 1 2   0   0 -9.720660e+02  1.799246e+03  1.945521e+03  2.822632e+03 0.0 0.0 9.0
#pdf 21 2 4.665332e-01 3.155520e-01 5000.0 4.434517e-03 2.977749e-02
</event>
<event>
4 7 1.0 5000.0 7.905138e-03 7.739137e-02
 2 -1 0 0 101   0  0.000000e+00  0.000000e+00  1.527881e+03  1.527881e+03 0.0 0.0 9.0
21 -1 0 0 103 101  0.000000e+00  0.000000e+00 -4.191619e+03  4.191619e+03 0.0 0.0 9.0
22  1 1 2   0   0  1.826659e+03  4.162688e+01  6.467843e+02  1.938233e+03 0.0 0.0 9.0
 2  1 1 2 103   0 -1.826659e+03 -4.162688e+01 -3.310523e+03  3.781267e+03 0.0022 0.0 9.0
#pdf 2 21 2.350586e-01 6.448645e-01 5000.0 3.337972e-01 1.781568e-02
</event>
<event>
4 7 1.0 5000.0 7.905138e-03 7.739137e-02
21 -1 0 0 103 101  0.000000e+00  0.000000e+00  3.136808e+03  3.136808e+03 0.0 0.0 9.0
 2 -1 0 0 101   0  0.000000e+00  0.000000e+00 -2.151833e+03  2.151833e+03 0.0 0.0 9.0
22  1 1 2   0   0 -2.560646e+03  4.324745e+02  4.140197e+02  2.629706e+03 0.0 0.0 9.0
 2  1 1 2 103   0  2.560646e+03 -4.324745e+02  5.709547e+02  2.658934e+03 0.0022 0.0 9.0
#pdf 21 2 4.825858e-01 3.310513e-01 5000.0 3.574667e-03 2.462709e-02
</event>
<event>
4 7 1.0 5000.0 7.905138e-03 7.739137e-02
 2 -1 0 0 101   0  0.000000e+00  0.000000e+00  4.925642e+03  4.925642e+03 0.0 0.0 9.0
21 -1 0 0 103 101  0.000000e+00  0.000000e+00 -1.255402e+03  1.255402e+03 0.0 0.0 9.0
 2  1 1 2 103   0  1.559152e+03 -1.390591e+03  3.511301e+03  4.085821e+03 0.0022 0.0 9.0
22  1 1 2   0   0 -1.559152e+03  1.390591e+03  1.589389e+02  2.095223e+03 0.0 0.0 9.0
#pdf 2 21 7.577911e-01 1.931388e-01 5000.0 3.725515e-03 3.915203e-01
</event>
<event>
4 7 1.0 5000.0 7.905138e-03 7.739137e-02
 2 -1 0 0 101   0  0.000000e+00  0.000000e+00  2.914224e+03  2.914224e+03 0.0 0.0 9.0
21 -1 0 0 103 101  0.000000e+00  0.000000e+00 -2.120919e+03  2.120919e+03 0.0 0.0 9.0
22  1 1 2   0   0 -1.057977e+03 -1.680993e+03  1.910816e+03  2.756133e+03 0.0 0.0 9.0
 2  1 1 2 103   0  1.057977e+03  1.680993e+03 -1.117510e+03  2.279009e+03 0.0022 0.0 9.0
#pdf 2 21 4.483422e-01 3.262952e-01 5000.0 1.034508e-01 2.179575e-01
</event>
<event>
4 7 1.0 5000.0 7.905138e-03 7.739137e-02
 2 -1 0 0 101   0  0.000000e+00  0.000000e+00  1.312417e+03  1.312417e+03 0.0 0.0 9.0
21 -1 0 0 103 101  0.000000e+00  0.000000e+00 -5.140340e+03  5.140340e+03 0.0 0.0 9.0
 2  1 1 2 103   0  2.361130e+03  3.278771e+02 -6.327526e+02  2.466336e+03 0.0022 0.0 9.0
22  1 1 2   0   0 -2.361130e+03 -3.278771e+02 -3.195171e+03  3.986421e+03 0.0 0.0 9.0
#pdf 2 21 2.019103e-01 7.908215e-01 5000.0 3.793961e-01 2.043083e-03
</event>
<event>
4 7 1.0 5000.0 7.905138e-03 7.739137e-02
 2 -1 0 0 101   0  0.000000e+00  0.000000e+00  3.292733e+03  3.292733e+03 0.0 0.0 9.0
21 -1 0 0 103 101  0.000000e+00  0.000000e+00 -1.865302e+03  1.865302e+03 0.0 0.0 9.0
22  1 1 2   0   0 -1.786772e+03 -2.768708e-01 -1.073461e+03  2.084436e+03 0.0 0.0 9.0
 2  1 1 2 103   0  1.786772e+03  2.768708e-01  2.500892e+03  3.073600e+03 0.0022 0.0 9.0
#pdf 2 21 5.065743e-01 2.869696e-01 5000.0 6.686764e-02 2.654176e-01
</event>
<event>
4 7 1.0 5000.0 7.905138e-03 7.739137e-02
21 -1 0 0 103 101  0.000000e+00  0.000000e+00  4.230779e+03  4.230779e+03 0.0 0.0 9.0
 2 -1 0 0 101   0  0.000000e+00  0.000000e+00 -1.527787e+03  1.527787e+03 0.0 0.0 9.0
22  1 1 2   0   0 -1.349177e+03  9.628367e+02 -8.317559e+02  1.854495e+03 0.0 0.0 9.0
 2  1 1 2 103   0  1.349177e+03 -9.628367e+02  3.534747e+03  3.904071e+03 0.0022 0.0 9.0
#pdf 21 2 6.508891e-01 2.350442e-01 5000.0 2.727257e-04 8.042689e-02
</event>
<event>
4 7 1.0 5000.0 7.905138e-03 7.739137e-02
 2 -1 0 0 101   0  0.000000e+00  0.000000e+00  1.536169e+03  1.536169e+03 0.0 0.0 9.0
21 -1 0 0 103 101  0.000000e+00  0.000000e+00 -4.068422e+03  4.068422e+03 0.0 0.0 9.0
 2  1 1 2 103   0 -7.835331e+02 -2.272548e+03 -4.965165e+02  2.454573e+03 0.0022 0.0 9.0
22  1 1 2   0   0  7.835331e+02  2.272548e+03 -2.035737e+03  3.150019e+03 0.0 0.0 9.0
#pdf 2 21 2.363337e-01 6.259111e-01 5000.0 3.320544e-01 2.200807e-02
</event>
<event>
4 7 1.0 5000.0 7.905138e-03 7.739137e-02
 2 -1 0 0 101   0  0.000000e+00  0.000000e+00  2.076373e+03  2.076373e+03 0.0 0.0 9.0
21 -1 0 0 103 101  0.000000e+00  0.000000e+00 -3.011442e+03  3.011442e+03 0.0 0.0 9.0
22  1 1 2   0   0 -6.942727e+02 -1.309520e+03  1.581321e+03  2.167356e+03 0.0 0.0 9.0
 2  1 1 2 103   0  6.942727e+02  1.309520e+03 -2.516390e+03  2.920458e+03 0.0022 0.0 9.0
#pdf 2 21 3.194420e-01 4.632987e-01 5000.0 2.258999e-01 9.299318e-02
</event>
<event>
4 7 1.0 5000.0 7.905138e-03 7.739137e-02
 2 -1 0 0 101   0  0.000000e+00  0.000000e+00  1.283504e+03  1.283504e+03 0.0 0.0 9.0
21 -1 0 0 103 101  0.000000e+00  0.000000e+00 -4.967890e+03  4.967890e+03 0.0 0.0 9.0
 2  1 1 2 103   0  1.700342e+03  1.860785e+03 -2.028388e+03  3.235435e+03 0.0022 0.0 9.0
22  1 1 2   0   0 -1.700342e+03 -1.860785e+03 -1.655998e+03  3.015959e+03 0.0 0.0 9.0
#pdf 2 21 1.974622e-01 7.642908e-01 5000.0 3.855403e-01 3.332766e-03
</event>
<event>
4 7 1.0 5000.0 7.905138e-03 7.739137e-02
21 -1 0 0 103 101  0.000000e+00  0.000000e+00  3.307508e+03  3.307508e+03 0.0 0.0 9.0
 2 -1 0 0 101   0  0.000000e+00  0.000000e+00 -1.815929e+03  1.815929e+03 0.0 0.0 9.0
22  1 1 2   0   0  1.069172e+03  1.697474e+03 -7.256608e+02  2.133338e+03 0.0 0.0 9.0
 2  1 1 2 103   0 -1.069172e+03 -1.697474e+03  2.217239e+03  2.990100e+03 0.0022 0.0 9.0
#pdf 21 2 5.088474e-01 2.793737e-01 5000.0 2.493078e-03 4.638120e-02
</event>
<event>
4 7 1.0 5000.0 7.905138e-03 7.739137e-02
21 -1 0 0 103 101  0.000000e+00  0.000000e+00  2.709546e+03  2.709546e+03 0.0 0.0 9.0
 2 -1 0 0 101   0  0.000000e+00  0.000000e+00 -2.397049e+03  2.397049e+03 0.0 0.0 9.0
22  1 1 2   0   0  2.440496e+03 -2.584757e+02  8.446239e+02  2.595423e+03 0.0 0.0 9.0
 2  1 1 2 103   0 -2.440496e+03  2.584757e+02 -5.321270e+02  2.511173e+03 0.0022 0.0 9.0
#pdf 21 2 4.168533e-01 3.687768e-01 5000.0 8.462808e-03 1.547024e-02
</event>
<event>
4 7 1.0 5000.0 7.905138e-03 7.739137e-02
 2 -1 0 0 101   0  0.000000e+00  0.000000e+00  1.200234e+03  1.200234e+03 0.0 0.0 9.0
21 -1 0 0 103 101  0.000000e+00  0.000000e+00 -5.239417e+03  5.239417e+03 0.0 0.0 9.0
22  1 1 2   0   0 -1.713061e+03  1.647535e+03 -9.927479e+02  2.575752e+03 0.0 0.0 9.0
 2  1 1 2 103   0  1.713061e+03 -1.647535e+03 -3.046435e+03  3.863899e+03 0.0022 0.0 9.0
#pdf 2 21 1.846514e-01 8.060642e-01 5000.0 4.030918e-01 1.500677e-03
</event>
<event>
4 7 1.0 5000.0 7.905138e-03 7.739137e-02
21 -1 0 0 103 101  0.000000e+00  0.000000e+00  4.108334e+03  4.108334e+03 0.0 0.0 9.0
 2 -1 0 0 101   0  0.000000e+00  0.000000e+00 -1.567126e+03  1.567126e+03 0.0 0.0 9.0
 2  1 1 2 103   0  3.815380e+02 -2.118606e+03  2.772813e+03  3.510350e+03 0.0022 0.0 9.0
22  1 1 2   0   0 -3.815380e+02  2.118606e+03 -2.316049e+02  2.165111e+03 0.0 0.0 9.0
#pdf 21 2 6.320514e-01 2.410963e-01 5000.0 3.781823e-04 7.458294e-02
</event>
<event>
4 7 1.0 5000.0 7.905138e-03 7.739137e-02
21 -1 0 0 103 101  0.000000e+00  0.000000e+00  2.321054e+03  2.321054e+03 0.0 0.0 9.0
 2 -1 0 0 101   0  0.000000e+00  0.000000e+00 -2.685396e+03  2.685396e+03 0.0 0.0 9.0
 2  1 1 2 103   0  1.088784e+02 -1.710012e+03 -2.002750e+03  2.635716e+03 0.0022 0.0 9.0
22  1 1 2   0   0 -1.088784e+02  1.710012e+03  1.638408e+03  2.370733e+03 0.0 0.0 9.0
#pdf 21 2 3.570852e-01 4.131378e-01 5000.0 1.787665e-02 8.872345e-03
</event>
<event>
4 7 1.0 5000.0 7.905138e-03 7.739137e-02
 2 -1 0 0 101   0  0.000000e+00  0.000000e+00  3.459428e+03  3.459428e+03 0.0 0.0 9.0
21 -1 0 0 103 101  0.000000e+00  0.000000e+00 -1.856945e+03  1.856945e+03 0.0 0.0 9.0
 2  1 1 2 103   0  1.534436e+03 -1.629568e+03 -4.458711e+02  2.282277e+03 0.0022 0.0 9.0
22  1 1 2   0   0 -1.534436e+03  1.629568e+03  2.048354e+03  3.034096e+03 0.0 0.0 9.0
#pdf 2 21 5.322197e-01 2.856838e-01 5000.0 5.411172e-02 2.670447e-01
</event>
<event>
4 7 1.0 5000.0 7.905138e-03 7.739137e-02
21 -1 0 0 103 101  0.000000e+00  0.000000e+00  2.751395e+03  2.751395e+03 0.0 0.0 9.0
 2 -1 0 0 101   0  0.000000e+00  0.000000e+00 -2.238150e+03  2.238150e+03 0.0 0.0 9.0
22  1 1 2   0   0  1.101850e+03  1.431392e+03 -1.453944e+03  2.318817e+03 0.0 0.0 9.0
 2  1 1 2 103   0 -1.101850e+03 -1.431392e+03  1.967188e+03  2.670728e+03 0.0022 0.0 9.0
#pdf 21 2 4.232915e-01 3.443308e-01 5000.0 7.795321e-03 2.092481e-02
</event>
<event>
4 7 1.0 5000.0 7.905138e-03 7.739137e-02
21 -1 0 0 103 101  0.000000e+00  0.000000e+00  1.859320e+03  1.859320e+03 0.0 0.0 9.0
 2 -1 0 0 101   0  0.000000e+00  0.000000e+00 -3.363265e+03  3.363265e+03 0.0 0.0 9.0
 2  1 1 2 103   0  1.039949e+03 -9.620139e+02 -2.903810e+03  3.230956e+03 0.0022 0.0 9.0
22  1 1 2   0   0 -1.039949e+03  9.620139e+02  1.399865e+03  1.991629e+03 0.0 0.0 9.0
#pdf 21 2 2.860492e-01 5.174254e-01 5000.0 4.273577e-02 2.210808e-03
</event>
<event>
4 7 1.0 5000.0 7.905138e-03 7.739137e-02
21 -1 0 0 103 101  0.000000e+00  0.000000e+00  1.617813e+03  1.617813e+03 0.0 0.0 9.0
 2 -1 0 0 101   0  0.000000e+00  0.000000e+00 -3.653467e+03  3.653467e+03 0.0 0.0 9.0
22  1 1 2   0   0  3.290359e+02 -1.612556e+03  9.220839e+02  1.886489e+03 0.0 0.0 9.0
 2  1 1 2 103   0 -3.290359e+02  1.612556e+03 -2.957737e+03  3.384791e+03 0.0022 0.0 9.0
#pdf 21 2 2.488943e-01 5.620718e-01 5000.0 6.764795e-02 1.156795e-03
</event>
<event>
4 7 1.0 5000.0 7.905138e-03 7.739137e-02
21 -1 0 0 103 101  0.000000e+00  0.000000e+00  1.332720e+03  1.332720e+03 0.0 0.0 9.0
 2 -1 0 0 101   0  0.000000e+00  0.000000e+00 -4.845373e+03  4.845373e+03 0.0 0.0 9.0
 2  1 1 2 103   0 -1.774508e+03 -2.590539e+02 -3.944929e+03  4.333411e+03 0.0022 0.0 9.0
22  1 1 2   0   0  1.774508e+03  2.590539e+02  4.322762e+02  1.844682e+03 0.0 0.0 9.0
#pdf 21 2 2.050338e-01 7.454420e-01 5000.0 1.177837e-01 4.088517e-05
</event>
<event>
4 7 1.0 5000.0 7.905138e-03 7.739137e-02
21 -1 0 0 103 101  0.000000e+00  0.000000e+00  1.486501e+03  1.486501e+03 0.0 0.0 9.0
 2 -1 0 0 101   0  0.000000e+00  0.000000e+00 -4.151201e+03  4.151201e+03 0.0 0.0 9.0
 2  1 1 2 103   0  4.082720e+02  2.407336e+03 -8.138130e+02  2.573761e+03 0.0022 0.0 9.0
22  1 1 2   0   0 -4.082720e+02 -2.407336e+03 -1.850887e+03  3.063941e+03 0.0 0.0 9.0
#pdf 21 2 2.286924e-01 6.386463e-01 5000.0 8.706047e-02 3.378523e-04
</event>
<event>
4 7 1.0 5000.0 7.905138e-03 7.739137e-02
21 -1 0 0 103 101  0.000000e+00  0.000000e+00  1.758652e+03  1.758652e+03 0.0 0.0 9.0
 2 -1 0 0 101   0  0.000000e+00  0.000000e+00 -3.705497e+03  3.705497e+03 0.0 0.0 9.0
22  1 1 2   0   0  1.058398e+03 -2.206057e+03 -1.944361e+02  2.454526e+03 0.0 0.0 9.0
 2  1 1 2 103   0 -1.058398e+03  2.206057e+03 -1.752409e+03  3.009623e+03 0.0022 0.0 9.0
#pdf 21 2 2.705618e-01 5.700765e-01 5000.0 5.168708e-02 1.023666e-03
</event>
<event>
4 7 1.0 5000.0 7.905138e-03 7.739137e-02
 2 -1 0 0 101   0  0.000000e+00  0.000000e+00  3.337482e+03  3.337482e+03 0.0 0.0 9.0
21 -1 0 0 103 101  0.000000e+00  0.000000e+00 -1.451252e+03  1.451252e+03 0.0 0.0 9.0
22  1 1 2   0   0  1.191662e+03 -1.573426e+03 -1.160620e+02  1.977169e+03 0.0 0.0 9.0
 2  1 1 2 103   0 -1.191662e+03  1.573426e+03  2.002292e+03  2.811565e+03 0.0022 0.0 9.0
#pdf 2 21 5.134588e-01 2.232695e-01 5000.0 6.325167e-02 3.499360e-01
</event>
<event>
4 7 1.0 5000.0 7.905138e-03 7.739137e-02
21 -1 0 0 103 101  0.000000e+00  0.000000e+00  1.556420e+03  1.556420e+03 0.0 0.0 9.0
 2 -1 0 0 101   0  0.000000e+00  0.000000e+00 -2.807635e+03  2.807635e+03 0.0 0.0 9.0
 2  1 1 2 103   0 -5.179541e+02  1.604781e+03  6.639510e+02  1.812299e+03 0.0022 0.0 9.0
22  1 1 2   0   0  5.179541e+02 -1.604781e+03 -1.915166e+03  2.551756e+03 0.0 0.0 9.0
#pdf 21 2 2.394492e-01 4.319439e-01 5000.0 7.614014e-02 6.975529e-03
</event>
<event>
4 7 1.0 5000.0 7.905138e-03 7.739137e-02
21 -1 0 0 103 101  0.000000e+00  0.000000e+00  1.295752e+03  1.295752e+03 0.0 0.0 9.0
 2 -1 0 0 101   0  0.000000e+00  0.000000e+00 -4.831413e+03  4.831413e+03 0.0 0.0 9.0
 2  1 1 2 103   0 -2.322404e+03 -4.972972e+02 -8.041458e+02  2.507491e+03 0.0022 0.0 9.0
22  1 1 2   0   0  2.322404e+03  4.972972e+02 -2.731515e+03  3.619674e+03 0.0 0.0 9.0
#pdf 21 2 1.993465e-01 7.432943e-01 5000.0 1.268913e-01 4.293271e-05
</event>
<event>
4 7 1.0 5000.0 7.905138e-03 7.739137e-02
 2 -1 0 0 101   0  0.000000e+00  0.000000e+00  1.813577e+03  1.813577e+03 0.0 0.0 9.0
21 -1 0 0 103 101  0.000000e+00  0.000000e+00 -3.497917e+03  3.497917e+03 0.0 0.0 9.0
 2  1 1 2 103   0 -4.759042e+01  1.940341e+03  8.503499e+02  2.119028e+03 0.0022 0.0 9.0
22  1 1 2   0   0  4.759042e+01 -1.940341e+03 -2.534690e+03  3.192466e+03 0.0 0.0 9.0
#pdf 2 21 2.790119e-01 5.381411e-01 5000.0 2.755373e-01 5.142312e-02
</event>
<event>
4 7 1.0 5000.0 7.905138e-03 7.739137e-02
 2 -1 0 0 101   0  0.000000e+00  0.000000e+00  1.817830e+03  1.817830e+03 0.0 0.0 9.0
21 -1 0 0 103 101  0.000000e+00  0.000000e+00 -2.509861e+03  2.509861e+03 0.0 0.0 9.0
22  1 1 2   0   0  9.294361e+02 -9.435583e+02 -2.043673e+03  2.435314e+03 0.0 0.0 9.0
 2  1 1 2 103   0 -9.294361e+02  9.435583e+02  1.351643e+03  1.892377e+03 0.0022 0.0 9.0
#pdf 2 21 2.796662e-01 3.861324e-01 5000.0 2.746999e-01 1.553148e-01
</event>
<event>
4 7 1.0 5000.0 7.905138e-03 7.739137e-02
 2 -1 0 0 101   0  0.000000e+00  0.000000e+00  3.325836e+03  3.325836e+03 0.0 0.0 9.0
21 -1 0 0 103 101  0.000000e+00  0.000000e+00 -1.866350e+03  1.866350e+03 0.0 0.0 9.0
 2  1 1 2 103   0 -1.291049e+03  1.326110e+03  2.467689e+03  3.084617e+03 0.0022 0.0 9.0
22  1 1 2   0   0  1.291049e+03 -1.326110e+03 -1.008203e+03  2.107569e+03 0.0 0.0 9.0
#pdf 2 21 5.116671e-01 2.871308e-01 5000.0 6.417908e-02 2.652138e-01
</event>
<event>
4 7 1.0 5000.0 7.905138e-03 7.739137e-02
21 -1 0 0 103 101  0.000000e+00  0.000000e+00  2.560140e+03  2.560140e+03 0.0 0.0 9.0
 2 -1 0 0 101   0  0.000000e+00  0.000000e+00 -3.030886e+03  3.030886e+03 0.0 0.0 9.0
22  1 1 2   0   0  6.860809e+02  1.197182e+02 -2.942103e+03  3.023411e+03 0.0 0.0 9.0
 2  1 1 2 103   0 -6.860809e+02 -1.197182e+02  2.471358e+03  2.567615e+03 0.0022 0.0 9.0
#pdf 21 2 3.938677e-01 4.662901e-01 5000.0 1.131925e-02 4.448833e-03
</event>
<event>
4 7 1.0 5000.0 7.905138e-03 7.739137e-02
21 -1 0 0 103 101  0.000000e+00  0.000000e+00  3.171334e+03  3.171334e+03 0.0 0.0 9.0
 2 -1 0 0 101   0  0.000000e+00  0.000000e+00 -1.961345e+03  1.961345e+03 0.0 0.0 9.0
 2  1 1 2 103   0  1.893808e+03  2.655639e+02  2.252377e+03  2.954697e+03 0.0022 0.0 9.0
22  1 1 2   0   0 -1.893808e+03 -2.655639e+02 -1.042388e+03  2.177982e+03 0.0 0.0 9.0
#pdf 21 2 4.878975e-01 3.017454e-01 5000.0 3.326082e-03 3.526545e-02
</event>
<event>
4 7 1.0 5000.0 7.905138e-03 7.739137e-02
 2 -1 0 0 101   0  0.000000e+00  0.000000e+00  3.293235e+03  3.293235e+03 0.0 0.0 9.0
21 -1 0 0 103 101  0.000000e+00  0.000000e+00 -1.903971e+03  1.903971e+03 0.0 0.0 9.0
22  1 1 2   0   0 -4.670603e+02 -1.414831e+03 -1.393912e+03  2.040314e+03 0.0 0.0 9.0
 2  1 1 2 103   0  4.670603e+02  1.414831e+03  2.783176e+03  3.156891e+03 0.0022 0.0 9.0
#pdf 2 21 5.066515e-01 2.929186e-01 5000.0 6.682630e-02 2.579433e-01
</event>
<event>
4 7 1.0 5000.0 7.905138e-03 7.739137e-02
21 -1 0 0 103 101  0.000000e+00  0.000000e+00  1.937452e+03  1.937452e+03 0.0 0.0 9.0
 2 -1 0 0 101   0  0.000000e+00  0.000000e+00 -3.227877e+03  3.227877e+03 0.0 0.0 9.0
22  1 1 2   0   0 -4.783676e+02 -5.604969e+02 -3.113211e+03  3.199231e+03 0.0 0.0 9.0
 2  1 1 2 103   0  4.783676e+02  5.604969e+02  1.822787e+03  1.966099e+03 0.0022 0.0 9.0
#pdf 21 2 2.980696e-01 4.965965e-01 5000.0 3.690024e-02 2.953980e-03
</event>
<event>
4 7 1.0 5000.0 7.905138e-03 7.739137e-02
21 -1 0 0 103 101  0.000000e+00  0.000000e+00  3.734614e+03  3.734614e+03 0.0 0.0 9.0
 2 -1 0 0 101   0  0.000000e+00  0.000000e+00 -1.663405e+03  1.663405e+03 0.0 0.0 9.0
 2  1 1 2 103   0  6.663695e+02  1.812194e+03 -6.711271e+02  2.044140e+03 0.0022 0.0 9.0
22  1 1 2   0   0 -6.663695e+02 -1.812194e+03  2.742336e+03  3.353879e+03 0.0 0.0 9.0
#pdf 21 2 5.745559e-01 2.559084e-01 5000.0 9.555274e-04 6.200841e-02
</event>
<event>
4 7 1.0 5000.0 7.905138e-03 7.739137e-02
21 -1 0 0 103 101  0.000000e+00  0.000000e+00  1.341096e+03  1.341096e+03 0.0 0.0 9.0
 2 -1 0 0 101   0  0.000000e+00  0.000000e+00 -4.602041e+03  4.602041e+03 0.0 0.0 9.0
 2  1 1 2 103   0 -8.471795e+02 -7.943860e+02 -4.257351e+03  4.412913e+03 0.0022 0.0 9.0
22  1 1 2   0   0  8.471795e+02  7.943860e+02  9.964056e+02  1.530224e+03 0.0 0.0 9.0
#pdf 21 2 2.063224e-01 7.080064e-01 5000.0 1.158273e-01 9.201836e-05
</event>
<event>
4 7 1.0 5000.0 7.905138e-03 7.739137e-02
 2 -1 0 0 101   0  0.000000e+00  0.000000e+00  2.901842e+03  2.901842e+03 0.0 0.0 9.0
21 -1 0 0 103 101  0.000000e+00  0.000000e+00 -1.992749e+03  1.992749e+03 0.0 0.0 9.0
22  1 1 2   0   0 -1.094278e+03  1.638822e+03 -9.480680e+02  2.186782e+03 0.0 0.0 9.0
 2  1 1 2 103   0  1.094278e+03 -1.638822e+03  1.857161e+03  2.707809e+03 0.0022 0.0 9.0
#pdf 2 21 4.464372e-01 3.065768e-01 5000.0 1.048349e-01 2.411818e-01
</event>
<event>
4 7 1.0 5000.0 7.905138e-03 7.739137e-02
21 -1 0 0 103 101  0.000000e+00  0.000000e+00  3.760482e+03  3.760482e+03 0.0 0.0 9.0
 2 -1 0 0 101   0  0.000000e+00  0.000000e+00 -1.593924e+03  1.593924e+03 0.0 0.0 9.0
 2  1 1 2 103   0 -1.862002e+03 -1.340213e+03  1.485318e+02  2.298975e+03 0.0022 0.0 9.0
22  1 1 2   0   0  1.862002e+03  1.340213e+03  2.018027e+03  3.055430e+03 0.0 0.0 9.0
#pdf 21 2 5.785357e-01 2.452190e-01 5000.0 8.988213e-04 7.075830e-02
</event>
<event>
4 7 1.0 5000.0 7.905138e-03 7.739137e-02
 2 -1 0 0 101   0  0.000000e+00  0.000000e+00  1.588380e+03  1.588380e+03 0.0 0.0 9.0
21 -1 0 0 103 101  0.000000e+00  0.000000e+00 -3.974601e+03  3.974601e+03 0.0 0.0 9.0
 2  1 1 2 103   0  9.985947e+02 -2.012217e+03  5.294234e+01  2.247001e+03 0.0022 0.0 9.0
22  1 1 2   0   0 -9.985947e+02  2.012217e+03 -2.439163e+03  3.315980e+03 0.0 0.0 9.0
#pdf 2 21 2.443662e-01 6.114770e-01 5000.0 3.211956e-01 2.565940e-02
</event>
<event>
4 7 1.0 5000.0 7.905138e-03 7.739137e-02
 2 -1 0 0 101   0  0.000000e+00  0.000000e+00  1.244491e+03  1.244491e+03 0.0 0.0 9.0
21 -1 0 0 103 101  0.000000e+00  0.000000e+00 -3.828676e+03  3.828676e+03 0.0 0.0 9.0
22  1 1 2   0   0 -1.766239e+03  3.916031e+02  1.272394e+02  1.813600e+03 0.0 0.0 9.0
 2  1 1 2 103   0  1.766239e+03 -3.916031e+02 -2.711425e+03  3.259568e+03 0.0022 0.0 9.0
#pdf 2 21 1.914601e-01 5.890272e-01 5000.0 3.938215e-01 3.219081e-02
</event>
<event>
4 7 1.0 5000.0 7.905138e-03 7.739137e-02
 2 -1 0 0 101   0  0.000000e+00  0.000000e+00  1.412733e+03  1.412733e+03 0.0 0.0 9.0
21 -1 0 0 103 101  0.000000e+00  0.000000e+00 -4.400405e+03  4.400405e+03 0.0 0.0 9.0
 2  1 1 2 103   0 -1.544107e+03 -1.345971e+03  1.632856e+02  2.054889e+03 0.0022 0.0 9.0
22  1 1 2   0   0  1.544107e+03  1.345971e+03 -3.150958e+03  3.758250e+03 0.0 0.0 9.0
#pdf 2 21 2.173436e-01 6.769854e-01 5000.0 3.580578e-01 1.210424e-02
</event>
<event>
4 7 1.0 5000.0 7.905138e-03 7.739137e-02
 2 -1 0 0 101   0  0.000000e+00  0.000000e+00  1.516875e+03  1.516875e+03 0.0 0.0 9.0
21 -1 0 0 103 101  0.000000e+00  0.000000e+00 -3.281963e+03  3.281963e+03 0.0 0.0 9.0
22  1 1 2   0   0 -1.295874e+03 -1.015526e+03 -2.501971e+03  2.995069e+03 0.0 0.0 9.0
 2  1 1 2 103   0  1.295874e+03  1.015526e+03  7.368833e+02  1.803768e+03 0.0022 0.0 9.0
#pdf 2 21 2.333653e-01 5.049173e-01 5000.0 3.361156e-01 6.775929e-02
</event>
<event>
4 7 1.0 5000.0 7.905138e-03 7.739137e-02
 2 -1 0 0 101   0  0.000000e+00  0.000000e+00  1.670860e+03  1.670860e+03 0.0 0.0 9.0
21 -1 0 0 103 101  0.000000e+00  0.000000e+00 -3.816851e+03  3.816851e+03 0.0 0.0 9.0
22  1 1 2   0   0 -9.148467e+02  5.550120e+02 -3.558364e+03  3.715769e+03 0.0 0.0 9.0
 2  1 1 2 103   0  9.148467e+02 -5.550120e+02  1.412372e+03  1.771942e+03 0.0022 0.0 9.0
#pdf 2 21 2.570553e-01 5.872079e-01 5000.0 3.041931e-01 3.276920e-02
</event>
<event>
4 7 1.0 5000.0 7.905138e-03 7.739137e-02
21 -1 0 0 103 101  0.000000e+00  0.000000e+00  1.711670e+03  1.711670e+03 0.0 0.0 9.0
 2 -1 0 0 101   0  0.000000e+00  0.000000e+00 -3.680618e+03  3.680618e+03 0.0 0.0 9.0
22  1 1 2   0   0  1.704324e+03 -1.631080e+03 -6.365230e+01  2.359914e+03 0.0 0.0 9.0
 2  1 1 2 103   0 -1.704324e+03  1.631080e+03 -1.905295e+03  3.032374e+03 0.0022 0.0 9.0
#pdf 21 2 2.633339e-01 5.662489e-01 5000.0 5.650912e-02 1.085638e-03
</event>
<event>
4 7 1.0 5000.0 7.905138e-03 7.739137e-02
21 -1 0 0 103 101  0.000000e+00  0.000000e+00  1.644400e+03  1.644400e+03 0.0 0.0 9.0
 2 -1 0 0 101   0  0.000000e+00  0.000000e+00 -3.772232e+03  3.772232e+03 0.0 0.0 9.0
22  1 1 2   0   0  5.081580e+02  1.192604e+03 -3.376444e+03  3.616753e+03 0.0 0.0 9.0
 2  1 1 2 103   0 -5.081580e+02 -1.192604e+03  1.248613e+03  1.799878e+03 0.0022 0.0 9.0
#pdf 21 2 2.529846e-01 5.803433e-01 5000.0 6.431552e-02 8.741448e-04
</event>
<event>
4 7 1.0 5000.0 7.905138e-03 7.739137e-02
 2 -1 0 0 101   0  0.000000e+00  0.000000e+00  2.001139e+03  2.001139e+03 0.0 0.0 9.0
21 -1 0 0 103 101  0.000000e+00  0.000000e+00 -2.941052e+03  2.941052e+03 0.0 0.0 9.0
 2  1 1 2 103   0  9.085046e+02  1.220196e+03 -2.394849e+03  2.837174e+03 0.0022 0.0 9.0
22  1 1 2   0   0 -9.085046e+02 -1.220196e+03  1.454936e+03  2.105017e+03 0.0 0.0 9.0
#pdf 2 21 3.078675e-01 4.524696e-01 5000.0 2.396246e-01 1.004995e-01
</event>
<event>
4 7 1.0 5000.0 7.905138e-03 7.739137e-02
 2 -1 0 0 101   0  0.000000e+00  0.000000e+00  2.248672e+03  2.248672e+03 0.0 0.0 9.0
21 -1 0 0 103 101  0.000000e+00  0.000000e+00 -1.935664e+03  1.935664e+03 0.0 0.0 9.0
22  1 1 2   0   0  1.123505e+03 -4.387173e+01  1.918850e+03  2.224000e+03 0.0 0.0 9.0
 2  1 1 2 103   0 -1.123505e+03  4.387173e+01 -1.605842e+03  1.960336e+03 0.0022 0.0 9.0
#pdf 2 21 3.459495e-01 2.977944e-01 5000.0 1.960295e-01 2.519033e-01
</event>
<event>
4 7 1.0 5000.0 7.905138e-03 7.739137e-02
21 -1 0 0 103 101  0.000000e+00  0.000000e+00  1.786206e+03  1.786206e+03 0.0 0.0 9.0
 2 -1 0 0 101   0  0.000000e+00  0.000000e+00 -3.513675e+03  3.513675e+03 0.0 0.0 9.0
22  1 1 2   0   0 -4.347461e+02  1.559477e+03  1.158556e+03  1.990785e+03 0.0 0.0 9.0
 2  1 1 2 103   0  4.347461e+02 -1.559477e+03 -2.886025e+03  3.309096e+03 0.0022 0.0 9.0
#pdf 21 2 2.748009e-01 5.405654e-01 5000.0 4.906359e-02 1.586759e-03
</event>
<event>
4 7 1.0 5000.0 7.905138e-03 7.739137e-02
 2 -1 0 0 101   0  0.000000e+00  0.000000e+00  3.211557e+03  3.211557e+03 0.0 0.0 9.0
21 -1 0 0 103 101  0.000000e+00  0.000000e+00 -1.937779e+03  1.937779e+03 0.0 0.0 9.0
22  1 1 2   0   0 -1.743242e+03  5.001054e+02  2.404810e+03  3.011994e+03 0.0 0.0 9.0
 2  1 1 2 103   0  1.743242e+03 -5.001054e+02 -1.131032e+03  2.137342e+03 0.0022 0.0 9.0
#pdf 2 21 4.940857e-01 2.981199e-01 5000.0 7.379541e-02 2.515035e-01
</event>
<event>
4 7 1.0 5000.0 7.905138e-03 7.739137e-02
21 -1 0 0 103 101  0.000000e+00  0.000000e+00  2.187699e+03  2.187699e+03 0.0 0.0 9.0
 2 -1 0 0 101   0  0.000000e+00  0.000000e+00 -2.881991e+03  2.881991e+03 0.0 0.0 9.0
22  1 1 2   0   0  9.482224e+02 -8.323155e+02 -2.538752e+03  2.834985e+03 0.0 0.0 9.0
 2  1 1 2 103   0 -9.482224e+02  8.323155e+02  1.844461e+03  2.234706e+03 0.0022 0.0 9.0
#pdf 21 2 3.365691e-01 4.433832e-01 5000.0 2.301223e-02 6.016883e-03
</event>
<event>
4 7 1.0 5000.0 7.905138e-03 7.739137e-02
 2 -1 0 0 101   0  0.000000e+00  0.000000e+00  1.747660e+03  1.747660e+03 0.0 0.0 9.0
21 -1 0 0 103 101  0.000000e+00  0.000000e+00 -3.064756e+03  3.064756e+03 0.0 0.0 9.0
 2  1 1 2 103   0  4.799164e+02 -1.270006e+03  1.290132e+03  1.872879e+03 0.0022 0.0 9.0
22  1 1 2   0   0 -4.799164e+02  1.270006e+03 -2.607229e+03  2.939537e+03 0.0 0.0 9.0
#pdf 2 21 2.688707e-01 4.715010e-01 5000.0 2.886607e-01 8.758076e-02
</event>
<event>
4 7 1.0 5000.0 7.905138e-03 7.739137e-02
21 -1 0 0 103 101  0.000000e+00  0.000000e+00  1.892310e+03  1.892310e+03 0.0 0.0 9.0
 2 -1 0 0 101   0  0.000000e+00  0.000000e+00 -3.278078e+03  3.278078e+03 0.0 0.0 9.0
 2  1 1 2 103   0 -1.064750e+03 -1.424137e+03 -2.503039e+03  3.070352e+03 0.0022 0.0 9.0
22  1 1 2   0   0  1.064750e+03  1.424137e+03  1.117271e+03  2.100036e+03 0.0 0.0 9.0
#pdf 21 2 2.911247e-01 5.043197e-01 5000.0 4.018799e-02 2.654638e-03
</event>
<event>
4 7 1.0 5000.0 7.905138e-03 7.739137e-02
21 -1 0 0 103 101  0.000000e+00  0.000000e+00  3.194212e+03  3.194212e+03 0.0 0.0 9.0
 2 -1 0 0 101   0  0.000000e+00  0.000000e+00 -1.929663e+03  1.929663e+03 0.0 0.0 9.0
22  1 1 2   0   0  4.812322e+02 -1.083104e+03  2.883434e+03  3.117514e+03 0.0 0.0 9.0
 2  1 1 2 103   0 -4.812322e+02  1.083104e+03 -1.618885e+03  2.006362e+03 0.0022 0.0 9.0
#pdf 21 2 4.914173e-01 2.968713e-01 5000.0 3.170720e-03 3.745665e-02
</event>
<event>
4 7 1.0 5000.0 7.905138e-03 7.739137e-02
 2 -1 0 0 101   0  0.000000e+00  0.000000e+00  2.055439e+03  2.055439e+03 0.0 0.0 9.0
21 -1 0 0 103 101  0.000000e+00  0.000000e+00 -3.079682e+03  3.079682e+03 0.0 0.0 9.0
22  1 1 2   0   0 -1.577199e+03 -1.878230e+03 -1.084691e+03  2.681765e+03 0.0 0.0 9.0
 2  1 1 2 103   0  1.577199e+03  1.878230e+03  6.044868e+01  2.453357e+03 0.0022 0.0 9.0
#pdf 2 21 3.162214e-01 4.737972e-01 5000.0 2.296773e-01 8.610284e-02
</event>
<event>
4 7 1.0 5000.0 7.905138e-03 7.739137e-02
 2 -1 0 0 101   0  0.000000e+00  0.000000e+00  1.585922e+03  1.585922e+03 0.0 0.0 9.0
21 -1 0 0 103 101  0.000000e+00  0.000000e+00 -3.796426e+03  3.796426e+03 0.0 0.0 9.0
22  1 1 2   0   0  3.225595e+02  2.023069e+03  3.759822e+02  2.082839e+03 0.0 0.0 9.0
 2  1 1 2 103   0 -3.225595e+02 -2.023069e+03 -2.586486e+03  3.299510e+03 0.0022 0.0 9.0
#pdf 2 21 2.439880e-01 5.840656e-01 5000.0 3.217004e-01 3.378602e-02
</event>
<event>
4 7 1.0 5000.0 7.905138e-03 7.739137e-02
21 -1 0 0 103 101  0.000000e+00  0.000000e+00  3.577192e+03  3.577192e+03 0.0 0.0 9.0
 2 -1 0 0 101   0  0.000000e+00  0.000000e+00 -1.732720e+03  1.732720e+03 0.0 0.0 9.0
 2  1 1 2 103   0  5.902388e+02 -1.470061e+03 -1.125930e+03  1.943497e+03 0.0022 0.0 9.0
22  1 1 2   0   0 -5.902388e+02  1.470061e+03  2.970402e+03  3.366415e+03 0.0 0.0 9.0
#pdf 21 2 5.503373e-01 2.665722e-01 5000.0 1.374723e-03 5.429048e-02
</event>
<event>
4 7 1.0 5000.0 7.905138e-03 7.739137e-02
 2 -1 0 0 101   0  0.000000e+00  0.000000e+00  2.522568e+03  2.522568e+03 0.0 0.0 9.0
21 -1 0 0 103 101  0.000000e+00  0.000000e+00 -2.477148e+03  2.477148e+03 0.0 0.0 9.0
22  1 1 2   0   0 -2.117576e+02  1.864268e+03 -1.629157e+03  2.484852e+03 0.0 0.0 9.0
 2  1 1 2 103   0  2.117576e+02 -1.864268e+03  1.674576e+03  2.514864e+03 0.0022 0.0 9.0
#pdf 2 21 3.880873e-01 3.810997e-01 5000.0 1.534789e-01 1.601039e-01
</event>
<event>
4 7 1.0 5000.0 7.905138e-03 7.739137e-02
 2 -1 0 0 101   0  0.000000e+00  0.000000e+00  4.651783e+03  4.651783e+03 0.0 0.0 9.0
21 -1 0 0 103 101  0.000000e+00  0.000000e+00 -1.344371e+03  1.344371e+03 0.0 0.0 9.0
22  1 1 2   0   0  1.347344e+03  9.693437e+02  3.896196e+03  4.235009e+03 0.0 0.0 9.0
 2  1 1 2 103   0 -1.347344e+03 -9.693437e+02 -5.887845e+02  1.761145e+03 0.0022 0.0 9.0
#pdf 2 21 7.156589e-01 2.068264e-01 5000.0 7.189418e-03 3.726232e-01
</event>
<event>
4 7 1.0 5000.0 7.905138e-03 7.739137e-02
 2 -1 0 0 101   0  0.000000e+00  0.000000e+00  2.656043e+03  2.656043e+03 0.0 0.0 9.0
21 -1 0 0 103 101  0.000000e+00  0.000000e+00 -2.413011e+03  2.413011e+03 0.0 0.0 9.0
 2  1 1 2 103   0 -1.030482e+02 -1.945312e+03 -1.497195e+03  2.456919e+03 0.0022 0.0 9.0
22  1 1 2   0   0  1.030482e+02  1.945312e+03  1.740227e+03  2.612135e+03 0.0 0.0 9.0
#pdf 2 21 4.086220e-01 3.712325e-01 5000.0 1.349927e-01 1.697370e-01
</event>
<event>
4 7 1.0 5000.0 7.905138e-03 7.739137e-02
21 -1 0 0 103 101  0.000000e+00  0.000000e+00  2.406340e+03  2.406340e+03 0.0 0.0 9.0
 2 -1 0 0 101   0  0.000000e+00  0.000000e+00 -2.612208e+03  2.612208e+03 0.0 0.0 9.0
 2  1 1 2 103   0  1.036620e+03 -1.755622e+02 -2.380913e+03  2.602720e+03 0.0022 0.0 9.0
22  1 1 2   0   0 -1.036620e+03  1.755622e+02  2.175045e+03  2.415828e+03 0.0 0.0 9.0
#pdf 21 2 3.702062e-01 4.018782e-01 5000.0 1.519678e-02 1.023493e-02
</event>
<event>
4 7 1.0 5000.0 7.905138e-03 7.739137e-02
21 -1 0 0 103 101  0.000000e+00  0.000000e+00  2.950494e+03  2.950494e+03 0.0 0.0 9.0
 2 -1 0 0 101   0  0.000000e+00  0.000000e+00 -1.743144e+03  1.743144e+03 0.0 0.0 9.0
22  1 1 2   0   0  8.297673e+02  1.182765e+03  2.412599e+03  2.812131e+03 0.0 0.0 9.0
 2  1 1 2 103   0 -8.297673e+02 -1.182765e+03 -1.205249e+03  1.881508e+03 0.0022 0.0 9.0
#pdf 21 2 4.539222e-01 2.681761e-01 5000.0 5.242268e-03 5.322736e-02
</event>
<event>
4 7 1.0 5000.0 7.905138e-03 7.739137e-02
21 -1 0 0 103 101  0.000000e+00  0.000000e+00  2.166449e+03  2.166449e+03 0.0 0.0 9.0
 2 -1 0 0 101   0  0.000000e+00  0.000000e+00 -2.756889e+03  2.756889e+03 0.0 0.0 9.0
22  1 1 2   0   0  2.077632e+03 -8.745595e+02  6.557038e+02  2.347628e+03 0.0 0.0 9.0
 2  1 1 2 103   0 -2.077632e+03  8.745595e+02 -1.246144e+03  2.575710e+03 0.0022 0.0 9.0
#pdf 21 2 3.332998e-01 4.241368e-01 5000.0 2.395708e-02 7.711267e-03
</event>
<event>
4 7 1.0 5000.0 7.905138e-03 7.739137e-02
21 -1 0 0 103 101  0.000000e+00  0.000000e+00  3.871890e+03  3.871890e+03 0.0 0.0 9.0
 2 -1 0 0 101   0  0.000000e+00  0.000000e+00 -1.632542e+03  1.632542e+03 0.0 0.0 9.0
 2  1 1 2 103   0 -2.163483e+03 -1.392640e+02  2.513397e+03  3.319219e+03 0.0022 0.0 9.0
22  1 1 2   0   0  2.163483e+03  1.392640e+02 -2.740487e+02  2.185213e+03 0.0 0.0 9.0
#pdf 21 2 5.956754e-01 2.511603e-01 5000.0 6.874519e-04 6.578822e-02
</event>
<event>
4 7 1.0 5000.0 7.905138e-03 7.739137e-02
21 -1 0 0 103 101  0.000000e+00  0.000000e+00  4.132729e+03  4.132729e+03 0.0 0.0 9.0
 2 -1 0 0 101   0  0.000000e+00  0.000000e+00 -1.300773e+03  1.300773e+03 0.0 0.0 9.0
22  1 1 2   0   0  2.184259e+03  4.848482e+01  5.065356e+02  2.242747e+03 0.0 0.0 9.0
 2  1 1 2 103   0 -2.184259e+03 -4.848482e+01  2.325421e+03  3.190755e+03 0.0022 0.0 9.0
#pdf 21 2 6.358045e-01 2.001189e-01 5000.0 3.547338e-04 1.256217e-01
</event>
<event>
4 7 1.0 5000.0 7.905138e-03 7.739137e-02
 2 -1 0 0 101   0  0.000000e+00  0.000000e+00  2.880015e+03  2.880015e+03 0.0 0.0 9.0
21 -1 0 0 103 101  0.000000e+00  0.000000e+00 -2.108055e+03  2.108055e+03 0.0 0.0 9.0
 2  1 1 2 103   0 -2.802316e+02 -8.224589e+02 -1.947840e+03  2.132850e+03 0.0022 0.0 9.0
22  1 1 2   0   0  2.802316e+02  8.224589e+02  2.719800e+03  2.855220e+03 0.0 0.0 9.0
#pdf 2 21 4.430792e-01 3.243161e-01 5000.0 1.073247e-01 2.202369e-01
</event>
<event>
4 7 1.0 5000.0 7.905138e-03 7.739137e-02
21 -1 0 0 103 101  0.000000e+00  0.000000e+00  2.697894e+03  2.697894e+03 0.0 0.0 9.0
 2 -1 0 0 101   0  0.000000e+00  0.000000e+00 -2.904401e+03  2.904401e+03 0.0 0.0 9.0
22  1 1 2   0   0  1.499137e+03 -1.252103e+03 -2.109759e+03  2.875110e+03 0.0 0.0 9.0
 2  1 1 2 103   0 -1.499137e+03  1.252103e+03  1.903251e+03  2.727185e+03 0.0022 0.0 9.0
#pdf 21 2 4.150606e-01 4.468310e-01 5000.0 8.658018e-03 5.746435e-03
</event>
<event>
4 7 1.0 5000.0 7.905138e-03 7.739137e-02
21 -1 0 0 103 101  0.000000e+00  0.000000e+00  2.353450e+03  2.353450e+03 0.0 0.0 9.0
 2 -1 0 0 101   0  0.000000e+00  0.000000e+00 -2.095467e+03  2.095467e+03 0.0 0.0 9.0
22  1 1 2   0   0 -1.596415e+03  6.943023e+02 -1.252092e+03  2.144372e+03 0.0 0.0 9.0
 2  1 1 2 103   0  1.596415e+03 -6.943023e+02  1.510076e+03  2.304544e+03 0.0022 0.0 9.0
#pdf 21 2 3.620692e-01 3.223795e-01 5000.0 1.681697e-02 2.738340e-02
</event>
<event>
4 7 1.0 5000.0 7.905138e-03 7.739137e-02
 2 -1 0 0 101   0  0.000000e+00  0.000000e+00  1.714786e+03  1.714786e+03 0.0 0.0 9.0
21 -1 0 0 103 101  0.000000e+00  0.000000e+00 -2.863215e+03  2.863215e+03 0.0 0.0 9.0
 2  1 1 2 103   0  1.874327e+03  1.175159e+02 -1.789024e+03  2.593746e+03 0.0022 0.0 9.0
22  1 1 2   0   0 -1.874327e+03 -1.175159e+02  6.405945e+02  1.984256e+03 0.0 0.0 9.0
#pdf 2 21 2.638133e-01 4.404947e-01 5000.0 2.952855e-01 1.092628e-01
</event>
<event>
4 7 1.0 5000.0 7.905138e-03 7.739137e-02
 2 -1 0 0 101   0  0.000000e+00  0.000000e+00  2.002128e+03  2.002128e+03 0.0 0.0 9.0
21 -1 0 0 103 101  0.000000e+00  0.000000e+00 -3.189854e+03  3.189854e+03 0.0 0.0 9.0
 2  1 1 2 103   0 -5.744895e+02  6.389424e+02  1.847471e+03  2.037507e+03 0.0022 0.0 9.0
22  1 1 2   0   0  5.744895e+02 -6.389424e+02 -3.035198e+03  3.154475e+03 0.0 0.0 9.0
#pdf 2 21 3.080196e-01 4.907468e-01 5000.0 2.394415e-01 7.573031e-02
</event>
<event>
4 7 1.0 5000.0 7.905138e-03 7.739137e-02
 2 -1 0 0 101   0  0.000000e+00  0.000000e+00  4.764937e+03  4.764937e+03 0.0 0.0 9.0
21 -1 0 0 103 101  0.000000e+00  0.000000e+00 -1.216360e+03  1.216360e+03 0.0 0.0 9.0
 2  1 1 2 103   0  1.251705e+03 -3.480793e+02  4.292073e+03  4.484397e+03 0.0022 0.0 9.0
22  1 1 2   0   0 -1.251705e+03  3.480793e+02 -7.434965e+02  1.496900e+03 0.0 0.0 9.0
#pdf 2 21 7.330672e-01 1.871323e-01 5000.0 5.550930e-03 3.997111e-01
</event>
<event>
4 7 1.0 5000.0 7.905138e-03 7.739137e-02
21 -1 0 0 103 101  0.000000e+00  0.000000e+00  2.384183e+03  2.384183e+03 0.0 0.0 9.0
 2 -1 0 0 101   0  0.000000e+00  0.000000e+00 -2.464767e+03  2.464767e+03 0.0 0.0 9.0
22  1 1 2   0   0  1.761389e+03 -1.977839e+02  1.613673e+03  2.396988e+03 0.0 0.0 9.0
 2  1 1 2 103   0 -1.761389e+03  1.977839e+02 -1.694257e+03  2.451962e+03 0.0022 0.0 9.0
#pdf 21 2 3.667973e-01 3.791950e-01 5000.0 1.586092e-02 1.361151e-02
</event>
<event>
4 7 1.0 5000.0 7.905138e-03 7.739137e-02
21 -1 0 0 103 101  0.000000e+00  0.000000e+00  3.190676e+03  3.190676e+03 0.0 0.0 9.0
 2 -1 0 0 101   0  0.000000e+00  0.000000e+00 -1.973905e+03  1.973905e+03 0.0 0.0 9.0
 2  1 1 2 103   0 -2.423434e+03  6.517771e+02  6.244987e+02  2.586087e+03 0.0022 0.0 9.0
22  1 1 2   0   0  2.423434e+03 -6.517771e+02  5.922723e+02  2.578494e+03 0.0 0.0 9.0
#pdf 21 2 4.908733e-01 3.036777e-01 5000.0 3.194281e-03 3.445871e-02
</event>
<event>
4 7 1.0 5000.0 7.905138e-03 7.739137e-02
 2 -1 0 0 101   0  0.000000e+00  0.000000e+00  1.775943e+03  1.775943e+03 0.0 0.0 9.0
21 -1 0 0 103 101  0.000000e+00  0.000000e+00 -3.473647e+03  3.473647e+03 0.0 0.0 9.0
 2  1 1 2 103   0  5.129358e+02 -2.414862e+03 -5.607197e+02  2.531614e+03 0.0022 0.0 9.0
22  1 1 2   0   0 -5.129358e+02  2.414862e+03 -1.136984e+03  2.717976e+03 0.0 0.0 9.0
#pdf 2 21 2.732220e-01 5.344072e-01 5000.0 2.829995e-01 5.310764e-02
</event>
<event>
4 7 1.0 5000.0 7.905138e-03 7.739137e-02
 2 -1 0 0 101   0  0.000000e+00  0.000000e+00  3.176866e+03  3.176866e+03 0.0 0.0 9.0
21 -1 0 0 103 101  0.000000e+00  0.000000e+00 -1.933559e+03  1.933559e+03 0.0 0.0 9.0
22  1 1 2   0   0  1.462358e+03  8.088640e+02 -1.265317e+03  2.096134e+03 0.0 0.0 9.0
 2  1 1 2 103   0 -1.462358e+03 -8.088640e+02  2.508625e+03  3.014291e+03 0.0022 0.0 9.0
#pdf 2 21 4.887487e-01 2.974706e-01 5000.0 7.690503e-02 2.523017e-01
</event>
<event>
4 7 1.0 5000.0 7.905138e-03 7.739137e-02
 2 -1 0 0 101   0  0.000000e+00  0.000000e+00  1.865346e+03  1.865346e+03 0.0 0.0 9.0
21 -1 0 0 103 101  0.000000e+00  0.000000e+00 -3.364646e+03  3.364646e+03 0.0 0.0 9.0
 2  1 1 2 103   0 -2.455749e+03  3.919280e+02 -4.331920e+02  2.524276e+03 0.0022 0.0 9.0
22  1 1 2   0   0  2.455749e+03 -3.919280e+02 -1.066109e+03  2.705716e+03 0.0 0.0 9.0
#pdf 2 21 2.869762e-01 5.176379e-01 5000.0 2.654092e-01 6.112572e-02
</event>
<event>
4 7 1.0 5000.0 7.905138e-03 7.739137e-02
 2 -1 0 0 101   0  0.000000e+00  0.000000e+00  1.519355e+03  1.519355e+03 0.0 0.0 9.0
21 -1 0 0 103 101  0.000000e+00  0.000000e+00 -4.248916e+03  4.248916e+03 0.0 0.0 9.0
22  1 1 2   0   0 -1.247868e+03  5.526373e+02 -3.797525e+03  4.035317e+03 0.0 0.0 9.0
 2  1 1 2 103   0  1.247868e+03 -5.526373e+02  1.067965e+03  1.732954e+03 0.0022 0.0 9.0
#pdf 2 21 2.337470e-01 6.536793e-01 5000.0 3.355927e-01 1.609071e-02
</event>
<event>
4 7 1.0 5000.0 7.905138e-03 7.739137e-02
21 -1 0 0 103 101  0.000000e+00  0.000000e+00  1.736154e+03  1.736154e+03 0.0 0.0 9.0
 2 -1 0 0 101   0  0.000000e+00  0.000000e+00 -3.595859e+03  3.595859e+03 0.0 0.0 9.0
 2  1 1 2 103   0 -1.310020e+03  7.683449e+02 -3.046841e+03  3.404372e+03 0.0022 0.0 9.0
22  1 1 2   0   0  1.310020e+03 -7.683449e+02  1.187137e+03  1.927641e+03 0.0 0.0 9.0
#pdf 21 2 2.671006e-01 5.532091e-01 5000.0 5.393769e-02 1.317845e-03
</event>
<event>
4 7 1.0 5000.0 7.905138e-03 7.739137e-02
21 -1 0 0 103 101  0.000000e+00  0.000000e+00  3.029121e+03  3.029121e+03 0.0 0.0 9.0
 2 -1 0 0 101   0  0.000000e+00  0.000000e+00 -1.995624e+03  1.995624e+03 0.0 0.0 9.0
22  1 1 2   0   0  2.272484e+03 -8.423021e+02  9.397138e+02  2.599369e+03 0.0 0.0 9.0
 2  1 1 2 103   0 -2.272484e+03  8.423021e+02  9.378250e+01  2.425376e+03 0.0022 0.0 9.0
#pdf 21 2 4.660185e-01 3.070191e-01 5000.0 4.464871e-03 3.308742e-02
</event>
<event>
4 7 1.0 5000.0 7.905138e-03 7.739137e-02
 2 -1 0 0 101   0  0.000000e+00  0.000000e+00  2.999746e+03  2.999746e+03 0.0 0.0 9.0
21 -1 0 0 103 101  0.000000e+00  0.000000e+00 -2.057349e+03  2.057349e+03 0.0 0.0 9.0
22  1 1 2   0   0  4.918698e+02  1.298124e+03 -1.625742e+03  2.137779e+03 0.0 0.0 9.0
 2  1 1 2 103   0 -4.918698e+02 -1.298124e+03  2.568140e+03  2.919316e+03 0.0022 0.0 9.0
#pdf 2 21 4.614994e-01 3.165152e-01 5000.0 9.420953e-02 2.293315e-01
</event>
<event>
4 7 1.0 5000.0 7.905138e-03 7.739137e-02
21 -1 0 0 103 101  0.000000e+00  0.000000e+00  3.066609e+03  3.066609e+03 0.0 0.0 9.0
 2 -1 0 0 101   0  0.000000e+00  0.000000e+00 -2.019767e+03  2.019767e+03 0.0 0.0 9.0
 2  1 1 2 103   0 -1.411708e+03  1.228900e+03  2.199649e+03  2.888177e+03 0.0022 0.0 9.0
22  1 1 2   0   0  1.411708e+03 -1.228900e+03 -1.152807e+03  2.198199e+03 0.0 0.0 9.0
#pdf 21 2 4.717860e-01 3.107334e-01 5000.0 4.135036e-03 3.160793e-02
</event>
<event>
4 7 1.0 5000.0 7.905138e-03 7.739137e-02
 2 -1 0 0 101   0  0.000000e+00  0.000000e+00  3.511602e+03  3.511602e+03 0.0 0.0 9.0
21 -1 0 0 103 101  0.000000e+00  0.000000e+00 -1.796858e+03  1.796858e+03 0.0 0.0 9.0
22  1 1 2   0   0 -7.717345e+02  2.301279e+03  1.739019e+02  2.433454e+03 0.0 0.0 9.0
 2  1 1 2 103   0  7.717345e+02 -2.301279e+03  1.540842e+03  2.875005e+03 0.0022 0.0 9.0
#pdf 2 21 5.402464e-01 2.764396e-01 5000.0 5.049510e-02 2.788415e-01
</event>
<event>
4 7 1.0 5000.0 7.905138e-03 7.739137e-02
21 -1 0 0 103 101  0.000000e+00  0.000000e+00  1.422920e+03  1.422920e+03 0.0 0.0 9.0
 2 -1 0 0 101   0  0.000000e+00  0.000000e+00 -4.379136e+03  4.379136e+03 0.0 0.0 9.0
22  1 1 2   0   0  1.535979e+03  1.458300e+03  5.721917e+01  2.118760e+03 0.0 0.0 9.0
 2  1 1 2 103   0 -1.535979e+03 -1.458300e+03 -3.013435e+03  3.683295e+03 0.0022 0.0 9.0
#pdf 21 2 2.189107e-01 6.737132e-01 5000.0 9.864364e-02 1.799631e-04
</event>
<event>
4 7 1.0 5000.0 7.905138e-03 7.739137e-02
21 -1 0 0 103 101  0.000000e+00  0.000000e+00  1.904555e+03  1.904555e+03 0.0 0.0 9.0
 2 -1 0 0 101   0  0.000000e+00  0.000000e+00 -3.422089e+03  3.422089e+03 0.0 0.0 9.0
 2  1 1 2 103   0  2.254217e+03 -4.136152e+02  4.145736e+02  2.329043e+03 0.0022 0.0 9.0
22  1 1 2   0   0 -2.254217e+03  4.136152e+02 -1.932108e+03  2.997601e+03 0.0 0.0 9.0
#pdf 21 2 2.930085e-01 5.264753e-01 5000.0 3.927850e-02 1.945210e-03
</event>
<event>
4 7 1.0 5000.0 7.905138e-03 7.739137e-02
21 -1 0 0 103 101  0.000000e+00  0.000000e+00  2.613812e+03  2.613812e+03 0.0 0.0 9.0
 2 -1 0 0 101   0  0.000000e+00  0.000000e+00 -2.323828e+03  2.323828e+03 0.0 0.0 9.0
 2  1 1 2 103   0  7.254226e+02 -1.293040e+03  2.117117e+03  2.584642e+03 0.0022 0.0 9.0
22  1 1 2   0   0 -7.254226e+02  1.293040e+03 -1.827132e+03  2.352998e+03 0.0 0.0 9.0
#pdf 21 2 4.021250e-01 3.575119e-01 5000.0 1.020315e-02 1.778296e-02
</event>
<event>
4 7 1.0 5000.0 7.905138e-03 7.739137e-02
21 -1 0 0 103 101  0.000000e+00  0.000000e+00  2.000463e+03  2.000463e+03 0.0 0.0 9.0
 2 -1 0 0 101   0  0.000000e+00  0.000000e+00 -2.914750e+03  2.914750e+03 0.0 0.0 9.0
 2  1 1 2 103   0 -2.239529e+03  6.015217e+02 -1.142553e+03  2.585101e+03 0.0022 0.0 9.0
22  1 1 2   0   0  2.239529e+03 -6.015217e+02  2.282660e+02  2.330113e+03 0.0 0.0 9.0
#pdf 21 2 3.077636e-01 4.484231e-01 5000.0 3.278674e-02 5.629754e-03
</event>
<event>
4 7 1.0 5000.0 7.905138e-03 7.739137e-02
 2 -1 0 0 101   0  0.000000e+00  0.000000e+00  2.548855e+03  2.548855e+03 0.0 0.0 9.0
21 -1 0 0 103 101  0.000000e+00  0.000000e+00 -2.449669e+03  2.449669e+03 0.0 0.0 9.0
22  1 1 2   0   0 -2.113750e+02 -1.420883e+03  2.094565e+03  2.539841e+03 0.0 0.0 9.0
 2  1 1 2 103   0  2.113750e+02  1.420883e+03 -1.995379e+03  2.458684e+03 0.0022 0.0 9.0
#pdf 2 21 3.921316e-01 3.768722e-01 5000.0 1.497253e-01 1.641930e-01
</event>
<event>
4 7 1.0 5000.0 7.905138e-03 7.739137e-02
 2 -1 0 0 101   0  0.000000e+00  0.000000e+00  2.988587e+03  2.988587e+03 0.0 0.0 9.0
21 -1 0 0 103 101  0.000000e+00  0.000000e+00 -1.792538e+03  1.792538e+03 0.0 0.0 9.0
 2  1 1 2 103   0 -9.135543e+02 -2.076923e+03  1.258869e+02  2.272452e+03 0.0022 0.0 9.0
22  1 1 2   0   0  9.135543e+02  2.076923e+03  1.070163e+03  2.508673e+03 0.0 0.0 9.0
#pdf 2 21 4.597827e-01 2.757750e-01 5000.0 9.538297e-02 2.796982e-01
</event>
<event>
4 7 1.0 5000.0 7.905138e-03 7.739137e-02
 2 -1 0 0 101   0  0.000000e+00  0.000000e+00  3.196470e+03  3.196470e+03 0.0 0.0 9.0
21 -1 0 0 103 101  0.000000e+00  0.000000e+00 -1.936981e+03  1.936981e+03 0.0 0.0 9.0
22  1 1 2   0   0 -3.317686e+02  2.443934e+03  2.897798e+02  2.483315e+03 0.0 0.0 9.0
 2  1 1 2 103   0  3.317686e+02 -2.443934e+03  9.697086e+02  2.650135e+03 0.0022 0.0 9.0
#pdf 2 21 4.917645e-01 2.979971e-01 5000.0 7.513680e-02 2.516543e-01
</event>
<event>
4 7 1.0 5000.0 7.905138e-03 7.739137e-02
 2 -1 0 0 101   0  0.000000e+00  0.000000e+00  2.462352e+03  2.462352e+03 0.0 0.0 9.0
21 -1 0 0 103 101  0.000000e+00  0.000000e+00 -2.556317e+03  2.556317e+03 0.0 0.0 9.0
 2  1 1 2 103   0  3.664961e+02  8.478363e+02  2.286109e+03  2.465652e+03 0.0022 0.0 9.0
22  1 1 2   0   0 -3.664961e+02 -8.478363e+02 -2.380074e+03  2.553017e+03 0.0 0.0 9.0
#pdf 2 21 3.788234e-01 3.932795e-01 5000.0 1.622985e-01 1.486697e-01
</event>
<event>
4 7 1.0 5000.0 7.905138e-03 7.739137e-02
21 -1 0 0 103 101  0.000000e+00  0.000000e+00  2.205801e+03  2.205801e+03 0.0 0.0 9.0
 2 -1 0 0 101   0  0.000000e+00  0.000000e+00 -2.551089e+03  2.551089e+03 0.0 0.0 9.0
 2  1 1 2 103   0  2.205904e+03  6.764989e+02  3.797513e+02  2.338348e+03 0.0022 0.0 9.0
22  1 1 2   0   0 -2.205904e+03 -6.764989e+02 -7.250396e+02  2.418542e+03 0.0 0.0 9.0
#pdf 21 2 3.393540e-01 3.924752e-01 5000.0 2.223822e-02 1.151911e-02
</event>
<event>
4 7 1.0 5000.0 7.905138e-03 7.739137e-02
 2 -1 0 0 101   0  0.000000e+00  0.000000e+00  3.427908e+03  3.427908e+03 0.0 0.0 9.0
21 -1 0 0 103 101  0.000000e+00  0.000000e+00 -1.846321e+03  1.846321e+03 0.0 0.0 9.0
22  1 1 2   0   0 -1.494495e+03  1.674887e+03  1.981484e+03  2.994168e+03 0.0 0.0 9.0
 2  1 1 2 103   0  1.494495e+03 -1.674887e+03 -3.998976e+02  2.280061e+03 0.0022 0.0 9.0
#pdf 2 21 5.273704e-01 2.840494e-01 5000.0 5.637917e-02 2.691178e-01
</event>
<event>
4 7 1.0 5000.0 7.905138e-03 7.739137e-02
 2 -1 0 0 101   0  0.000000e+00  0.000000e+00  4.093996e+03  4.093996e+03 0.0 0.0 9.0
21 -1 0 0 103 101  0.000000e+00  0.000000e+00 -1.522247e+03  1.522247e+03 0.0 0.0 9.0
 2  1 1 2 103   0  1.469828e+03  8.723019e+02 -7.608714e+02  1.870890e+03 0.0022 0.0 9.0
22  1 1 2   0   0 -1.469828e+03 -8.723019e+02  3.332620e+03  3.745352e+03 0.0 0.0 9.0
#pdf 2 21 6.298455e-01 2.341918e-01 5000.0 2.108270e-02 3.349834e-01
</event>
<event>
4 7 1.0 5000.0 7.905138e-03 7.739137e-02
21 -1 0 0 103 101  0.000000e+00  0.000000e+00  1.734087e+03  1.734087e+03 0.0 0.0 9.0
 2 -1 0 0 101   0  0.000000e+00  0.000000e+00 -3.617389e+03  3.617389e+03 0.0 0.0 9.0
 2  1 1 2 103   0 -1.591448e+02 -2.498700e+03 -8.737431e+02  2.651840e+03 0.0022 0.0 9.0
22  1 1 2   0   0  1.591448e+02  2.498700e+03 -1.009559e+03  2.699636e+03 0.0 0.0 9.0
#pdf 21 2 2.667826e-01 5.565214e-01 5000.0 5.414970e-02 1.256200e-03
</event>
<event>
4 7 1.0 5000.0 7.905138e-03 7.739137e-02
21 -1 0 0 103 101  0.000000e+00  0.000000e+00  2.895277e+03  2.895277e+03 0.0 0.0 9.0
 2 -1 0 0 101   0  0.000000e+00  0.000000e+00 -2.134754e+03  2.134754e+03 0.0 0.0 9.0
 2  1 1 2 103   0 -7.969003e+02  2.311829e+03 -7.339532e+01  2.446424e+03 0.0022 0.0 9.0
22  1 1 2   0   0  7.969003e+02 -2.311829e+03  8.339176e+02  2.583607e+03 0.0 0.0 9.0
#pdf 21 2 4.454272e-01 3.284237e-01 5000.0 5.853973e-03 2.543220e-02
</event>
<event>
4 7 1.0 5000.0 7.905138e-03 7.739137e-02
21 -1 0 0 103 101  0.000000e+00  0.000000e+00  4.108681e+03  4.108681e+03 0.0 0.0 9.0
 2 -1 0 0 101   0  0.000000e+00  0.000000e+00 -1.405875e+03  1.405875e+03 0.0 0.0 9.0
 2  1 1 2 103   0 -1.422045e+03  1.612211e+03  1.185248e+02  2.153018e+03 0.0022 0.0 9.0
22  1 1 2   0   0  1.422045e+03 -1.612211e+03  2.584281e+03  3.361539e+03 0.0 0.0 9.0
#pdf 21 2 6.321048e-01 2.162885e-01 5000.0 3.778386e-04 1.020113e-01
</event>
<event>
4 7 1.0 5000.0 7.905138e-03 7.739137e-02
21 -1 0 0 103 101  0.000000e+00  0.000000e+00  2.277809e+03  2.277809e+03 0.0 0.0 9.0
 2 -1 0 0 101   0  0.000000e+00  0.000000e+00 -2.460277e+03  2.460277e+03 0.0 0.0 9.0
22  1 1 2   0   0  1.120624e+03 -7.459330e+02 -2.039941e+03  2.444090e+03 0.0 0.0 9.0
 2  1 1 2 103   0 -1.120624e+03  7.459330e+02  1.857473e+03  2.293997e+03 0.0022 0.0 9.0
#pdf 21 2 3.504322e-01 3.785042e-01 5000.0 1.941599e-02 1.372877e-02
</event>
<event>
4 7 1.0 5000.0 7.905138e-03 7.739137e-02
21 -1 0 0 103 101  0.000000e+00  0.000000e+00  2.668831e+03  2.668831e+03 0.0 0.0 9.0
 2 -1 0 0 101   0  0.000000e+00  0.000000e+00 -2.299820e+03  2.299820e+03 0.0 0.0 9.0
 2  1 1 2 103   0  5.268213e+02 -5.449645e+02 -2.180692e+03  2.308668e+03 0.0022 0.0 9.0
22  1 1 2   0   0 -5.268213e+02  5.449645e+02  2.549703e+03  2.659983e+03 0.0 0.0 9.0
#pdf 21 2 4.105894e-01 3.538185e-01 5000.0 9.164752e-03 1.861709e-02
</event>
<event>
4 7 1.0 5000.0 7.905138e-03 7.739137e-02
21 -1 0 0 103 101  0.000000e+00  0.000000e+00  2.870610e+03  2.870610e+03 0.0 0.0 9.0
 2 -1 0 0 101   0  0.000000e+00  0.000000e+00 -2.154978e+03  2.154978e+03 0.0 0.0 9.0
 2  1 1 2 103   0  7.801761e+02 -2.232028e+03 -4.217985e+02  2.401778e+03 0.0022 0.0 9.0
22  1 1 2   0   0 -7.801761e+02  2.232028e+03  1.137431e+03  2.623809e+03 0.0 0.0 9.0
#pdf 21 2 4.416322e-01 3.315350e-01 5000.0 6.157815e-03 2.448150e-02
</event>
<event>
4 7 1.0 5000.0 7.905138e-03 7.739137e-02
21 -1 0 0 103 101  0.000000e+00  0.000000e+00  2.381213e+03  2.381213e+03 0.0 0.0 9.0
 2 -1 0 0 101   0  0.000000e+00  0.000000e+00 -2.648920e+03  2.648920e+03 0.0 0.0 9.0
 2  1 1 2 103   0  1.993356e+03 -1.006030e+03  1.017595e+03  2.453785e+03 0.0022 0.0 9.0
22  1 1 2   0   0 -1.993356e+03  1.006030e+03 -1.285302e+03  2.576347e+03 0.0 0.0 9.0
#pdf 21 2 3.663404e-01 4.075262e-01 5000.0 1.595207e-02 9.529309e-03
</event>
<event>
4 7 1.0 5000.0 7.905138e-03 7.739137e-02
 2 -1 0 0 101   0  0.000000e+00  0.000000e+00  1.758282e+03  1.758282e+03 0.0 0.0 9.0
21 -1 0 0 103 101  0.000000e+00  0.000000e+00 -2.747022e+03  2.747022e+03 0.0 0.0 9.0
22  1 1 2   0   0  5.621422e+02  1.151941e+03  1.335475e+03  1.851072e+03 0.0 0.0 9.0
 2  1 1 2 103   0 -5.621422e+02 -1.151941e+03 -2.324215e+03  2.654232e+03 0.0022 0.0 9.0
#pdf 2 21 2.705049e-01 4.226188e-01 5000.0 2.865298e-01 1.232438e-01
</event>
<event>
4 7 1.0 5000.0 7.905138e-03 7.739137e-02
21 -1 0 0 103 101  0.000000e+00  0.000000e+00  2.097227e+03  2.097227e+03 0.0 0.0 9.0
 2 -1 0 0 101   0  0.000000e+00  0.000000e+00 -2.938031e+03  2.938031e+03 0.0 0.0 9.0
 2  1 1 2 103   0 -2.511682e+02 -7.388014e+02 -2.810397e+03  2.916718e+03 0.0022 0.0 9.0
22  1 1 2   0   0  2.511682e+02  7.388014e+02  1.969593e+03  2.118540e+03 0.0 0.0 9.0
#pdf 21 2 3.226503e-01 4.520048e-01 5000.0 2.729282e-02 5.375772e-03
</event>
<event>
4 7 1.0 5000.0 7.905138e-03 7.739137e-02
21 -1 0 0 103 101  0.000000e+00  0.000000e+00  3.110790e+03  3.110790e+03 0.0 0.0 9.0
 2 -1 0 0 101   0  0.000000e+00  0.000000e+00 -1.941482e+03  1.941482e+03 0.0 0.0 9.0
 2  1 1 2 103   0 -4.036461e+02  2.410633e+03  8.476440e+02  2.587003e+03 0.0022 0.0 9.0
22  1 1 2   0   0  4.036461e+02 -2.410633e+03  3.216636e+02  2.465269e+03 0.0 0.0 9.0
#pdf 21 2 4.785830e-01 2.986895e-01 5000.0 3.774041e-03 3.661357e-02
</event>
<event>
4 7 1.0 5000.0 7.905138e-03 7.739137e-02
 2 -1 0 0 101   0  0.000000e+00  0.000000e+00  4.366356e+03  4.366356e+03 0.0 0.0 9.0
21 -1 0 0 103 101  0.000000e+00  0.000000e+00 -1.449431e+03  1.449431e+03 0.0 0.0 9.0
22  1 1 2   0   0  3.426300e+02 -7.142187e+02 -1.301507e+03  1.523622e+03 0.0 0.0 9.0
 2  1 1 2 103   0 -3.426300e+02  7.142187e+02  4.218432e+03  4.292164e+03 0.0022 0.0 9.0
#pdf 2 21 6.717471e-01 2.229894e-01 5000.0 1.292915e-02 3.503193e-01
</event>
<event>
4 7 1.0 5000.0 7.905138e-03 7.739137e-02
21 -1 0 0 103 101  0.000000e+00  0.000000e+00  2.069483e+03  2.069483e+03 0.0 0.0 9.0
 2 -1 0 0 101   0  0.000000e+00  0.000000e+00 -2.810116e+03  2.810116e+03 0.0 0.0 9.0
 2  1 1 2 103   0 -1.217553e+03 -6.529745e+02  1.629384e+03  2.136282e+03 0.0022 0.0 9.0
22  1 1 2   0   0  1.217553e+03  6.529745e+02 -2.370017e+03  2.743317e+03 0.0 0.0 9.0
#pdf 21 2 3.183821e-01 4.323256e-01 5000.0 2.875771e-02 6.941620e-03
</event>
<event>
4 7 1.0 5000.0 7.905138e-03 7.739137e-02
21 -1 0 0 103 101  0.000000e+00  0.000000e+00  1.649466e+03  1.649466e+03 0.0 0.0 9.0
 2 -1 0 0 101   0  0.000000e+00  0.000000e+00 -3.599984e+03  3.599984e+03 0.0 0.0 9.0
22  1 1 2   0   0  1.144647e+03  2.857476e+02 -3.271858e+03  3.478063e+03 0.0 0.0 9.0
 2  1 1 2 103   0 -1.144647e+03 -2.857476e+02  1.321340e+03  1.771386e+03 0.0022 0.0 9.0
#pdf 21 2 2.537639e-01 5.538436e-01 5000.0 6.369382e-02 1.305817e-03
</event>
<event>
4 7 1.0 5000.0 7.905138e-03 7.739137e-02
21 -1 0 0 103 101  0.000000e+00  0.000000e+00  1.715842e+03  1.715842e+03 0.0 0.0 9.0
 2 -1 0 0 101   0  0.000000e+00  0.000000e+00 -3.654406e+03  3.654406e+03 0.0 0.0 9.0
 2  1 1 2 103   0  2.268914e+03 -3.827748e+02  9.001695e+01  2.302736e+03 0.0022 0.0 9.0
22  1 1 2   0   0 -2.268914e+03  3.827748e+02 -2.028581e+03  3.067512e+03 0.0 0.0 9.0
#pdf 21 2 2.639757e-01 5.622163e-01 5000.0 5.606148e-02 1.154278e-03
</event>
<event>
4 7 1.0 5000.0 7.905138e-03 7.739137e-02
 2 -1 0 0 101   0  0.000000e+00  0.000000e+00  3.639519e+03  3.639519e+03 0.0 0.0 9.0
21 -1 0 0 103 101  0.000000e+00  0.000000e+00 -1.795755e+03  1.795755e+03 0.0 0.0 9.0
 2  1 1 2 103   0  2.318533e+03 -9.249073e+02  1.508610e+03  2.916668e+03 0.0022 0.0 9.0
22  1 1 2   0   0 -2.318533e+03  9.249073e+02  3.351547e+02  2.518606e+03 0.0 0.0 9.0
#pdf 2 21 5.599260e-01 2.762699e-01 5000.0 4.240391e-02 2.790601e-01
</event>
<event>
4 7 1.0 5000.0 7.905138e-03 7.739137e-02
 2 -1 0 0 101   0  0.000000e+00  0.000000e+00  1.189290e+03  1.189290e+03 0.0 0.0 9.0
21 -1 0 0 103 101  0.000000e+00  0.000000e+00 -4.019069e+03  4.019069e+03 0.0 0.0 9.0
 2  1 1 2 103   0 -5.130118e+02  1.983841e+03 -5.069351e+02  2.110874e+03 0.0022 0.0 9.0
22  1 1 2   0   0  5.130118e+02 -1.983841e+03 -2.322844e+03  3.097485e+03 0.0 0.0 9.0
#pdf 2 21 1.829677e-01 6.183183e-01 5000.0 4.053891e-01 2.387768e-02
</event>
<event>
4 7 1.0 5000.0 7.905138e-03 7.739137e-02
 2 -1 0 0 101   0  0.000000e+00  0.000000e+00  1.535118e+03  1.535118e+03 0.0 0.0 9.0
21 -1 0 0 103 101  0.000000e+00  0.000000e+00 -4.214237e+03  4.214237e+03 0.0 0.0 9.0
22  1 1 2   0   0 -1.537376e+02  1.593985e+03  8.938343e+02  1.833948e+03 0.0 0.0 9.0
 2  1 1 2 103   0  1.537376e+02 -1.593985e+03 -3.572953e+03  3.915408e+03 0.0022 0.0 9.0
#pdf 2 21 2.361720e-01 6.483442e-01 5000.0 3.322752e-01 1.711728e-02
</event>
<event>
4 7 1.0 5000.0 7.905138e-03 7.739137e-02
21 -1 0 0 103 101  0.000000e+00  0.000000e+00  1.813272e+03  1.813272e+03 0.0 0.0 9.0
 2 -1 0 0 101   0  0.000000e+00  0.000000e+00 -3.269548e+03  3.269548e+03 0.0 0.0 9.0
 2  1 1 2 103   0 -3.976246e+02 -3.920046e+02 -3.201821e+03  3.250143e+03 0.0022 0.0 9.0
22  1 1 2   0   0  3.976246e+02  3.920046e+02  1.745545e+03  1.832676e+03 0.0 0.0 9.0
#pdf 21 2 2.789649e-01 5.030073e-01 5000.0 4.661526e-02 2.703335e-03
</event>
<event>
4 7 1.0 5000.0 7.905138e-03 7.739137e-02
 2 -1 0 0 101   0  0.000000e+00  0.000000e+00  2.942506e+03  2.942506e+03 0.0 0.0 9.0
21 -1 0 0 103 101  0.000000e+00  0.000000e+00 -2.101309e+03  2.101309e+03 0.0 0.0 9.0
22  1 1 2   0   0 -1.035482e+03 -1.369944e+03  2.244516e+03  2.826096e+03 0.0 0.0 9.0
 2  1 1 2 103   0  1.035482e+03  1.369944e+03 -1.403319e+03  2.217718e+03 0.0022 0.0 9.0
#pdf 2 21 4.526932e-01 3.232783e-01 5000.0 1.003407e-01 2.214370e-01
</event>
<event>
4 7 1.0 5000.0 7.905138e-03 7.739137e-02
21 -1 0 0 103 101  0.000000e+00  0.000000e+00  4.668252e+03  4.668252e+03 0.0 0.0 9.0
 2 -1 0 0 101   0  0.000000e+00  0.000000e+00 -1.331793e+03  1.331793e+03 0.0 0.0 9.0
22  1 1 2   0   0  4.426423e+02 -2.008101e+03 -2.852101e+01  2.056506e+03 0.0 0.0 9.0
 2  1 1 2 103   0 -4.426423e+02  2.008101e+03  3.364981e+03  3.943539e+03 0.0022 0.0 9.0
#pdf 21 2 7.181926e-01 2.048912e-01 5000.0 7.448055e-05 1.180032e-01
</event>
<event>
4 7 1.0 5000.0 7.905138e-03 7.739137e-02
21 -1 0 0 103 101  0.000000e+00  0.000000e+00  3.502662e+03  3.502662e+03 0.0 0.0 9.0
 2 -1 0 0 101   0  0.000000e+00  0.000000e+00 -1.817864e+03  1.817864e+03 0.0 0.0 9.0
22  1 1 2   0   0  1.460650e+03 -8.003218e+02 -1.156057e+03  2.027432e+03 0.0 0.0 9.0
 2  1 1 2 103   0 -1.460650e+03  8.003218e+02  2.840855e+03  3.293094e+03 0.0022 0.0 9.0
#pdf 21 2 5.388711e-01 2.796714e-01 5000.0 1.626166e-03 4.621150e-02
</event>
<event>
4 7 1.0 5000.0 7.905138e-03 7.739137e-02
 2 -1 0 0 101   0  0.000000e+00  0.000000e+00  2.965743e+03  2.965743e+03 0.0 0.0 9.0
21 -1 0 0 103 101  0.000000e+00  0.000000e+00 -2.151114e+03  2.151114e+03 0.0 0.0 9.0
 2  1 1 2 103   0 -7.024931e+02 -4.544230e+01 -2.049738e+03  2.167253e+03 0.0022 0.0 9.0
22  1 1 2   0   0  7.024931e+02  4.544230e+01  2.864367e+03  2.949604e+03 0.0 0.0 9.0
#pdf 2 21 4.562682e-01 3.309406e-01 5000.0 9.782032e-02 2.126567e-01
</event>
<event>
4 7 1.0 5000.0 7.905138e-03 7.739137e-02
21 -1 0 0 103 101  0.000000e+00  0.000000e+00  3.807880e+03  3.807880e+03 0.0 0.0 9.0
 2 -1 0 0 101   0  0.000000e+00  0.000000e+00 -1.710477e+03  1.710477e+03 0.0 0.0 9.0
22  1 1 2   0   0 -9.464592e+02  2.361408e+03  1.268306e+03  2.842646e+03 0.0 0.0 9.0
 2  1 1 2 103   0  9.464592e+02 -2.361408e+03  8.290969e+02  2.675712e+03 0.0022 0.0 9.0
#pdf 21 2 5.858278e-01 2.631504e-01 5000.0 8.029583e-04 5.663793e-02
</event>
<event>
4 7 1.0 5000.0 7.905138e-03 7.739137e-02
 2 -1 0 0 101   0  0.000000e+00  0.000000e+00  1.854373e+03  1.854373e+03 0.0 0.0 9.0
21 -1 0 0 103 101  0.000000e+00  0.000000e+00 -2.904303e+03  2.904303e+03 0.0 0.0 9.0
 2  1 1 2 103   0  5.264425e+02  7.893032e+02  1.646451e+03  1.900248e+03 0.0022 0.0 9.0
22  1 1 2   0   0 -5.264425e+02 -7.893032e+02 -2.696381e+03  2.858428e+03 0.0 0.0 9.0
#pdf 2 21 2.852881e-01 4.468158e-01 5000.0 2.675462e-01 1.045580e-01
</event>
<event>
4 7 1.0 5000.0 7.905138e-03 7.739137e-02
 2 -1 0 0 101   0  0.000000e+00  0.000000e+00  2.452614e+03  2.452614e+03 0.0 0.0 9.0
21 -1 0 0 103 101  0.000000e+00  0.000000e+00 -2.498256e+03  2.498256e+03 0.0 0.0 9.0
22  1 1 2   0   0 -2.141514e+03 -2.784607e+01 -1.264001e+03  2.486877e+03 0.0 0.0 9.0
 2  1 1 2 103   0  2.141514e+03  2.784607e+01  1.218359e+03  2.463992e+03 0.0022 0.0 9.0
#pdf 2 21 3.773252e-01 3.843471e-01 5000.0 1.637521e-01 1.570036e-01
</event>
<event>
4 7 1.0 5000.0 7.905138e-03 7.739137e-02
 2 -1 0 0 101   0  0.000000e+00  0.000000e+00  1.862191e+03  1.862191e+03 0.0 0.0 9.0
21 -1 0 0 103 101  0.000000e+00  0.000000e+00 -3.269622e+03  3.269622e+03 0.0 0.0 9.0
 2  1 1 2 103   0  1.556166e+03 -1.261091e+02  1.283258e+03  2.020966e+03 0.0022 0.0 9.0
22  1 1 2   0   0 -1.556166e+03  1.261091e+02 -2.690689e+03  3.110846e+03 0.0 0.0 9.0
#pdf 2 21 2.864909e-01 5.030188e-01 5000.0 2.660231e-01 6.879114e-02
</event>
<event>
4 7 1.0 5000.0 7.905138e-03 7.739137e-02
21 -1 0 0 103 101  0.000000e+00  0.000000e+00  2.238668e+03  2.238668e+03 0.0 0.0 9.0
 2 -1 0 0 101   0  0.000000e+00  0.000000e+00 -2.797563e+03  2.797563e+03 0.0 0.0 9.0
 2  1 1 2 103   0  1.383072e+03  6.910237e+02  1.700628e+03  2.298377e+03 0.0022 0.0 9.0
22  1 1 2   0   0 -1.383072e+03 -6.910237e+02 -2.259522e+03  2.737854e+03 0.0 0.0 9.0
#pdf 21 2 3.444105e-01 4.303943e-01 5000.0 2.090445e-02 7.115032e-03
</event>
<event>
4 7 1.0 5000.0 7.905138e-03 7.739137e-02
21 -1 0 0 103 101  0.000000e+00  0.000000e+00  3.310915e+03  3.310915e+03 0.0 0.0 9.0
 2 -1 0 0 101   0  0.000000e+00  0.000000e+00 -1.878080e+03  1.878080e+03 0.0 0.0 9.0
 2  1 1 2 103   0  1.311068e+03 -1.968882e+03 -1.046623e+02  2.367773e+03 0.0022 0.0 9.0
22  1 1 2   0   0 -1.311068e+03  1.968882e+03  1.537498e+03  2.821222e+03 0.0 0.0 9.0
#pdf 21 2 5.093716e-01 2.889353e-01 5000.0 2.474979e-03 4.126754e-02
</event>
<event>
4 7 1.0 5000.0 7.905138e-03 7.739137e-02
21 -1 0 0 103 101  0.000000e+00  0.000000e+00  2.586553e+03  2.586553e+03 0.0 0.0 9.0
 2 -1 0 0 101   0  0.000000e+00  0.000000e+00 -2.400552e+03  2.400552e+03 0.0 0.0 9.0
22  1 1 2   0   0  1.326655e+02  1.049700e+03 -2.164604e+03  2.409352e+03 0.0 0.0 9.0
 2  1 1 2 103   0 -1.326655e+02 -1.049700e+03  2.350604e+03  2.577753e+03 0.0022 0.0 9.0
#pdf 21 2 3.979312e-01 3.693158e-01 5000.0 1.075591e-02 1.536618e-02
</event>
<event>
4 7 1.0 5000.0 7.905138e-03 7.739137e-02
 2 -1 0 0 101   0  0.000000e+00  0.000000e+00  1.681906e+03  1.681906e+03 0.0 0.0 9.0
21 -1 0 0 103 101  0.000000e+00  0.000000e+00 -3.650363e+03  3.650363e+03 0.0 0.0 9.0
22  1 1 2   0   0 -3.631585e+02  2.391882e+03 -4.082070e+02  2.453491e+03 0.0 0.0 9.0
 2  1 1 2 103   0  3.631585e+02 -2.391882e+03 -1.560251e+03  2.878779e+03 0.0022 0.0 9.0
#pdf 2 21 2.587548e-01 5.615944e-01 5000.0 3.019464e-01 4.176229e-02
</event>
<event>
4 7 1.0 5000.0 7.905138e-03 7.739137e-02
 2 -1 0 0 101   0  0.000000e+00  0.000000e+00  2.747427e+03  2.747427e+03 0.0 0.0 9.0
21 -1 0 0 103 101  0.000000e+00  0.000000e+00 -2.306544e+03  2.306544e+03 0.0 0.0 9.0
22  1 1 2   0   0  1.443056e+03  1.896245e+03 -5.943950e+02  2.455903e+03 0.0 0.0 9.0
 2  1 1 2 103   0 -1.443056e+03 -1.896245e+03  1.035278e+03  2.598068e+03 0.0022 0.0 9.0
#pdf 2 21 4.226811e-01 3.548530e-01 5000.0 1.231930e-01 1.865195e-01
</event>
<event>
4 7 1.0 5000.0 7.905138e-03 7.739137e-02
21 -1 0 0 103 101  0.000000e+00  0.000000e+00  2.219983e+03  2.219983e+03 0.0 0.0 9.0
 2 -1 0 0 101   0  0.000000e+00  0.000000e+00 -2.992413e+03  2.992413e+03 0.0 0.0 9.0
 2  1 1 2 103   0  1.390337e+03  2.036660e+03  3.718783e+02  2.493855e+03 0.0022 0.0 9.0
22  1 1 2   0   0 -1.390337e+03 -2.036660e+03 -1.144308e+03  2.718541e+03 0.0 0.0 9.0
#pdf 21 2 3.415358e-01 4.603712e-01 5000.0 2.165209e-02 4.811658e-03
</event>
<event>
4 7 1.0 5000.0 7.905138e-03 7.739137e-02
 2 -1 0 0 101   0  0.000000e+00  0.000000e+00  4.010861e+03  4.010861e+03 0.0 0.0 9.0
21 -1 0 0 103 101  0.000000e+00  0.000000e+00 -1.572376e+03  1.572376e+03 0.0 0.0 9.0
 2  1 1 2 103   0 -5.916797e+02  1.076086e+03 -1.215839e+03  1.728094e+03 0.0022 0.0 9.0
22  1 1 2   0   0  5.916797e+02 -1.076086e+03  3.654323e+03  3.855142e+03 0.0 0.0 9.0
#pdf 2 21 6.170555e-01 2.419041e-01 5000.0 2.419949e-02 3.244959e-01
</event>
<event>
4 7 1.0 5000.0 7.905138e-03 7.739137e-02
 2 -1 0 0 101   0  0.000000e+00  0.000000e+00  3.740727e+03  3.740727e+03 0.0 0.0 9.0
21 -1 0 0 103 101  0.000000e+00  0.000000e+00 -1.652305e+03  1.652305e+03 0.0 0.0 9.0
22  1 1 2   0   0  1.083956e+03 -2.234646e+03  1.164116e+03  2.742949e+03 0.0 0.0 9.0
 2  1 1 2 103   0 -1.083956e+03  2.234646e+03  9.243062e+02  2.650084e+03 0.0022 0.0 9.0
#pdf 2 21 5.754965e-01 2.542008e-01 5000.0 3.667657e-02 3.079816e-01
</event>
<event>
4 7 1.0 5000.0 7.905138e-03 7.739137e-02
 2 -1 0 0 101   0  0.000000e+00  0.000000e+00  1.560211e+03  1.560211e+03 0.0 0.0 9.0
21 -1 0 0 103 101  0.000000e+00  0.000000e+00 -3.992419e+03  3.992419e+03 0.0 0.0 9.0
22  1 1 2   0   0 -7.906346e+02 -3.793195e+02  1.383197e+03  1.637749e+03 0.0 0.0 9.0
 2  1 1 2 103   0  7.906346e+02  3.793195e+02 -3.815405e+03  3.914882e+03 0.0022 0.0 9.0
#pdf 2 21 2.400325e-01 6.142183e-01 5000.0 3.270232e-01 2.493410e-02
</event>
<event>
4 7 1.0 5000.0 7.905138e-03 7.739137e-02
21 -1 0 0 103 101  0.000000e+00  0.000000e+00  2.515035e+03  2.515035e+03 0.0 0.0 9.0
 2 -1 0 0 101   0  0.000000e+00  0.000000e+00 -2.594065e+03  2.594065e+03 0.0 0.0 9.0
 2  1 1 2 103   0 -1.139816e+03  2.209231e+03  5.473100e+02  2.545473e+03 0.0022 0.0 9.0
22  1 1 2   0   0  1.139816e+03 -2.209231e+03 -6.263406e+02  2.563627e+03 0.0 0.0 9.0
#pdf 21 2 3.869284e-01 3.990870e-01 5000.0 1.235281e-02 1.060080e-02
</event>
<event>
4 7 1.0 5000.0 7.905138e-03 7.739137e-02
21 -1 0 0 103 101  0.000000e+00  0.000000e+00  3.749804e+03  3.749804e+03 0.0 0.0 9.0
 2 -1 0 0 101   0  0.000000e+00  0.000000e+00 -1.502122e+03  1.502122e+03 0.0 0.0 9.0
22  1 1 2   0   0  5.591331e+02 -9.085686e+02 -1.221868e+03  1.622063e+03 0.0 0.0 9.0
 2  1 1 2 103   0 -5.591331e+02  9.085686e+02  3.469550e+03  3.629863e+03 0.0022 0.0 9.0
#pdf 21 2 5.768929e-01 2.310957e-01 5000.0 9.218194e-04 8.447391e-02
</event>
<event>
4 7 1.0 5000.0 7.905138e-03 7.739137e-02
21 -1 0 0 103 101  0.000000e+00  0.000000e+00  4.760818e+03  4.760818e+03 0.0 0.0 9.0
 2 -1 0 0 101   0  0.000000e+00  0.000000e+00 -1.328562e+03  1.328562e+03 0.0 0.0 9.0
22  1 1 2   0   0 -1.025269e+03  1.876918e+03  1.141376e+02  2.141734e+03 0.0 0.0 9.0
 2  1 1 2 103   0  1.025269e+03 -1.876918e+03  3.318119e+03  3.947646e+03 0.0022 0.0 9.0
#pdf 21 2 7.324336e-01 2.043941e-01 5000.0 5.482733e-05 1.187721e-01
</event>
<event>
4 7 1.0 5000.0 7.905138e-03 7.739137e-02
21 -1 0 0 103 101  0.000000e+00  0.000000e+00  2.983686e+03  2.983686e+03 0.0 0.0 9.0
 2 -1 0 0 101   0  0.000000e+00  0.000000e+00 -2.096785e+03  2.096785e+03 0.0 0.0 9.0
22  1 1 2   0   0  1.140596e+03  2.271492e+02  2.692389e+03  2.932834e+03 0.0 0.0 9.0
 2  1 1 2 103   0 -1.140596e+03 -2.271492e+02 -1.805488e+03  2.147637e+03 0.0022 0.0 9.0
#pdf 21 2 4.590285e-01 3.225823e-01 5000.0 4.898526e-03 2.731554e-02
</event>
<event>
4 7 1.0 5000.0 7.905138e-03 7.739137e-02
 2 -1 0 0 101   0  0.000000e+00  0.000000e+00  3.709132e+03  3.709132e+03 0.0 0.0 9.0
21 -1 0 0 103 101  0.000000e+00  0.000000e+00 -1.788193e+03  1.788193e+03 0.0 0.0 9.0
22  1 1 2   0   0 -1.882610e+03 -1.414332e+03 -1.528252e+02  2.359642e+03 0.0 0.0 9.0
 2  1 1 2 103   0  1.882610e+03  1.414332e+03  2.073764e+03  3.137683e+03 0.0022 0.0 9.0
#pdf 2 21 5.706357e-01 2.751066e-01 5000.0 3.839607e-02 2.805609e-01
</event>
<event>
4 7 1.0 5000.0 7.905138e-03 7.739137e-02
21 -1 0 0 103 101  0.000000e+00  0.000000e+00  2.252578e+03  2.252578e+03 0.0 0.0 9.0
 2 -1 0 0 101   0  0.000000e+00  0.000000e+00 -2.751463e+03  2.751463e+03 0.0 0.0 9.0
 2  1 1 2 103   0  7.717726e+02  3.384381e+02  2.104874e+03  2.267304e+03 0.0022 0.0 9.0
22  1 1 2   0   0 -7.717726e+02 -3.384381e+02 -2.603758e+03  2.736737e+03 0.0 0.0 9.0
#pdf 21 2 3.465505e-01 4.233020e-01 5000.0 2.036432e-02 7.794270e-03
</event>
<event>
4 7 1.0 5000.0 7.905138e-03 7.739137e-02
21 -1 0 0 103 101  0.000000e+00  0.000000e+00  2.243550e+03  2.243550e+03 0.0 0.0 9.0
 2 -1 0 0 101   0  0.000000e+00  0.000000e+00 -2.779421e+03  2.779421e+03 0.0 0.0 9.0
 2  1 1 2 103   0  1.731909e+03 -1.110724e+03 -1.691174e+03  2.663322e+03 0.0022 0.0 9.0
22  1 1 2   0   0 -1.731909e+03  1.110724e+03  1.155303e+03  2.359649e+03 0.0 0.0 9.0
#pdf 21 2 3.451616e-01 4.276032e-01 5000.0 2.071335e-02 7.374545e-03
</event>
<event>
4 7 1.0 5000.0 7.905138e-03 7.739137e-02
 2 -1 0 0 101   0  0.000000e+00  0.000000e+00  1.116274e+03  1.116274e+03 0.0 0.0 9.0
21 -1 0 0 103 101  0.000000e+00  0.000000e+00 -5.415154e+03  5.415154e+03 0.0 0.0 9.0
 2  1 1 2 103   0  8.498140e+02 -2.053331e+03 -3.546620e+03  4.185315e+03 0.0022 0.0 9.0
22  1 1 2   0   0 -8.498140e+02  2.053331e+03 -7.522593e+02  2.346113e+03 0.0 0.0 9.0
#pdf 2 21 1.717345e-01 8.331006e-01 5000.0 4.208025e-01 8.128757e-04
</event>
<event>
4 7 1.0 5000.0 7.905138e-03 7.739137e-02
21 -1 0 0 103 101  0.000000e+00  0.000000e+00  3.019470e+03  3.019470e+03 0.0 0.0 9.0
 2 -1 0 0 101   0  0.000000e+00  0.000000e+00 -2.129971e+03  2.129971e+03 0.0 0.0 9.0
22  1 1 2   0   0  3.934876e+01  7.342308e+02  2.908875e+03  3.000366e+03 0.0 0.0 9.0
 2  1 1 2 103   0 -3.934876e+01 -7.342308e+02 -2.019376e+03  2.149075e+03 0.0022 0.0 9.0
#pdf 21 2 4.645338e-01 3.276878e-01 5000.0 4.553476e-03 2.566218e-02
</event>
<event>
4 7 1.0 5000.0 7.905138e-03 7.739137e-02
21 -1 0 0 103 101  0.000000e+00  0.000000e+00  4.262664e+03  4.262664e+03 0.0 0.0 9.0
 2 -1 0 0 101   0  0.000000e+00  0.000000e+00 -1.484715e+03  1.484715e+03 0.0 0.0 9.0
22  1 1 2   0   0  3.438726e+02 -1.697192e+03  3.473507e+03  3.881231e+03 0.0 0.0 9.0
 2  1 1 2 103   0 -3.438726e+02  1.697192e+03 -6.955573e+02  1.866148e+03 0.0022 0.0 9.0
#pdf 21 2 6.557945e-01 2.284177e-01 5000.0 2.501554e-04 8.736302e-02
</event>
<event>
4 7 1.0 5000.0 7.905138e-03 7.739137e-02
 2 -1 0 0 101   0  0.000000e+00  0.000000e+00  3.906103e+03  3.906103e+03 0.0 0.0 9.0
21 -1 0 0 103 101  0.000000e+00  0.000000e+00 -1.602652e+03  1.602652e+03 0.0 0.0 9.0
 2  1 1 2 103   0  6.885542e+02 -1.487500e+03 -9.292673e+02  1.884224e+03 0.0022 0.0 9.0
22  1 1 2   0   0 -6.885542e+02  1.487500e+03  3.232719e+03  3.624532e+03 0.0 0.0 9.0
#pdf 2 21 6.009390e-01 2.465619e-01 5000.0 2.859067e-02 3.182479e-01
</event>
<event>
4 7 1.0 5000.0 7.905138e-03 7.739137e-02
 2 -1 0 0 101   0  0.000000e+00  0.000000e+00  1.931290e+03  1.931290e+03 0.0 0.0 9.0
21 -1 0 0 103 101  0.000000e+00  0.000000e+00 -3.801300e+03  3.801300e+03 0.0 0.0 9.0
 2  1 1 2 103   0 -1.097189e+03  4.542901e+02 -3.511343e+03  3.706714e+03 0.0022 0.0 9.0
22  1 1 2   0   0  1.097189e+03 -4.542901e+02  1.641333e+03  2.025877e+03 0.0 0.0 9.0
#pdf 2 21 2.971216e-01 5.848155e-01 5000.0 2.527314e-01 3.354131e-02
</event>
<event>
4 7 1.0 5000.0 7.905138e-03 7.739137e-02
21 -1 0 0 103 101  0.000000e+00  0.000000e+00  3.045430e+03  3.045430e+03 0.0 0.0 9.0
 2 -1 0 0 101   0  0.000000e+00  0.000000e+00 -2.208742e+03  2.208742e+03 0.0 0.0 9.0
 2  1 1 2 103   0  2.403860e+03 -3.717932e+02  1.329862e+03  2.772238e+03 0.0022 0.0 9.0
22  1 1 2   0   0 -2.403860e+03  3.717932e+02 -4.931742e+02  2.481934e+03 0.0 0.0 9.0
#pdf 21 2 4.685276e-01 3.398065e-01 5000.0 4.318618e-03 2.211525e-02
</event>
<event>
4 7 1.0 5000.0 7.905138e-03 7.739137e-02
 2 -1 0 0 101   0  0.000000e+00  0.000000e+00  2.535459e+03  2.535459e+03 0.0 0.0 9.0
21 -1 0 0 103 101  0.000000e+00  0.000000e+00 -2.402223e+03  2.402223e+03 0.0 0.0 9.0
22  1 1 2   0   0  2.070752e+03  4.060446e+02  1.346870e+03  2.503387e+03 0.0 0.0 9.0
 2  1 1 2 103   0 -2.070752e+03 -4.060446e+02 -1.213634e+03  2.434295e+03 0.0022 0.0 9.0
#pdf 2 21 3.900706e-01 3.695727e-01 5000.0 1.516309e-01 1.713946e-01
</event>
<event>
4 7 1.0 5000.0 7.905138e-03 7.739137e-02
 2 -1 0 0 101   0  0.000000e+00  0.000000e+00  2.206334e+03  2.206334e+03 0.0 0.0 9.0
21 -1 0 0 103 101  0.000000e+00  0.000000e+00 -2.826388e+03  2.826388e+03 0.0 0.0 9.0
22  1 1 2   0   0 -1.742196e+03  3.244494e+02  1.462867e+03  2.297932e+03 0.0 0.0 9.0
 2  1 1 2 103   0  1.742196e+03 -3.244494e+02 -2.082921e+03  2.734790e+03 0.0022 0.0 9.0
#pdf 2 21 3.394359e-01 4.348290e-01 5000.0 2.031566e-01 1.135756e-01
</event>
<event>
4 7 1.0 5000.0 7.905138e-03 7.739137e-02
21 -1 0 0 103 101  0.000000e+00  0.000000e+00  2.111574e+03  2.111574e+03 0.0 0.0 9.0
 2 -1 0 0 101   0  0.000000e+00  0.000000e+00 -2.956258e+03  2.956258e+03 0.0 0.0 9.0
22  1 1 2   0   0 -6.584685e+02 -5.053774e+02 -2.812332e+03  2.932269e+03 0.0 0.0 9.0
 2  1 1 2 103   0  6.584685e+02  5.053774e+02  1.967649e+03  2.135563e+03 0.0022 0.0 9.0
#pdf 21 2 3.248576e-01 4.548089e-01 5000.0 2.656588e-02 5.181248e-03
</event>
<event>
4 7 1.0 5000.0 7.905138e-03 7.739137e-02
 2 -1 0 0 101   0  0.000000e+00  0.000000e+00  1.745543e+03  1.745543e+03 0.0 0.0 9.0
21 -1 0 0 103 101  0.000000e+00  0.000000e+00 -4.041836e+03  4.041836e+03 0.0 0.0 9.0
22  1 1 2   0   0 -7.700775e+02 -5.609386e+02  1.552996e+03  1.821941e+03 0.0 0.0 9.0
 2  1 1 2 103   0  7.700775e+02  5.609386e+02 -3.849289e+03  3.965438e+03 0.0022 0.0 9.0
#pdf 2 21 2.685450e-01 6.218209e-01 5000.0 2.890860e-01 2.300145e-02
</event>
<event>
4 7 1.0 5000.0 7.905138e-03 7.739137e-02
21 -1 0 0 103 101  0.000000e+00  0.000000e+00  1.678503e+03  1.678503e+03 0.0 0.0 9.0
 2 -1 0 0 101   0  0.000000e+00  0.000000e+00 -3.283568e+03  3.283568e+03 0.0 0.0 9.0
22  1 1 2   0   0  4.565297e+01 -1.027740e+03  1.427609e+03  1.759659e+03 0.0 0.0 9.0
 2  1 1 2 103   0 -4.565297e+01  1.027740e+03 -3.032674e+03  3.202412e+03 0.0022 0.0 9.0
#pdf 21 2 2.582313e-01 5.051644e-01 5000.0 6.022840e-02 2.623756e-03
</event>
<event>
4 7 1.0 5000.0 7.905138e-03 7.739137e-02
 2 -1 0 0 101   0  0.000000e+00  0.000000e+00  4.131082e+03  4.131082e+03 0.0 0.0 9.0
21 -1 0 0 103 101  0.000000e+00  0.000000e+00 -1.527568e+03  1.527568e+03 0.0 0.0 9.0
 2  1 1 2 103   0  1.069979e+03  1.806533e+03 -2.515822e+02  2.114642e+03 0.0022 0.0 9.0
22  1 1 2   0   0 -1.069979e+03 -1.806533e+03  2.855096e+03  3.544008e+03 0.0 0.0 9.0
#pdf 2 21 6.355510e-01 2.350104e-01 5000.0 1.979364e-02 3.338630e-01
</event>
<event>
4 7 1.0 5000.0 7.905138e-03 7.739137e-02
21 -1 0 0 103 101  0.000000e+00  0.000000e+00  3.044712e+03  3.044712e+03 0.0 0.0 9.0
 2 -1 0 0 101   0  0.000000e+00  0.000000e+00 -1.784366e+03  1.784366e+03 0.0 0.0 9.0
 2  1 1 2 103   0 -8.584761e+01  1.067262e+03 -1.514537e+03  1.854789e+03 0.0022 0.0 9.0
22  1 1 2   0   0  8.584761e+01 -1.067262e+03  2.774884e+03  2.974289e+03 0.0 0.0 9.0
#pdf 21 2 4.684172e-01 2.745178e-01 5000.0 4.324965e-03 4.923451e-02
</event>
<event>
4 7 1.0 5000.0 7.905138e-03 7.739137e-02
21 -1 0 0 103 101  0.000000e+00  0.000000e+00  2.895817e+03  2.895817e+03 0.0 0.0 9.0
 2 -1 0 0 101   0  0.000000e+00  0.000000e+00 -2.181124e+03  2.181124e+03 0.0 0.0 9.0
22  1 1 2   0   0 -8.618648e+02  6.414132e+02  2.652183e+03  2.861520e+03 0.0 0.0 9.0
 2  1 1 2 103   0  8.618648e+02 -6.414132e+02 -1.937490e+03  2.215421e+03 0.0022 0.0 9.0
#pdf 21 2 4.455104e-01 3.355575e-01 5000.0 5.847448e-03 2.330097e-02
</event>
<event>
4 7 1.0 5000.0 7.905138e-03 7.739137e-02
21 -1 0 0 103 101  0.000000e+00  0.000000e+00  4.268731e+03  4.268731e+03 0.0 0.0 9.0
 2 -1 0 0 101   0  0.000000e+00  0.000000e+00 -1.472612e+03  1.472612e+03 0.0 0.0 9.0
 2  1 1 2 103   0  1.804736e+03 -1.310199e+03  8.634878e+01  2.231849e+03 0.0022 0.0 9.0
22  1 1 2   0   0 -1.804736e+03  1.310199e+03  2.709771e+03  3.509494e+03 0.0 0.0 9.0
#pdf 21 2 6.567279e-01 2.265556e-01 5000.0 2.460295e-04 8.945317e-02
</event>
<event>
4 7 1.0 5000.0 7.905138e-03 7.739137e-02
 2 -1 0 0 101   0  0.000000e+00  0.000000e+00  2.157878e+03  2.157878e+03 0.0 0.0 9.0
21 -1 0 0 103 101  0.000000e+00  0.000000e+00 -2.782289e+03  2.782289e+03 0.0 0.0 9.0
 2  1 1 2 103   0 -3.168238e+02  4.180743e+02 -2.725021e+03  2.775050e+03 0.0022 0.0 9.0
22  1 1 2   0   0  3.168238e+02 -4.180743e+02  2.100611e+03  2.165116e+03 0.0 0.0 9.0
#pdf 2 21 3.319813e-01 4.280444e-01 5000.0 2.114793e-01 1.188783e-01
</event>
<event>
4 7 1.0 5000.0 7.905138e-03 7.739137e-02
 2 -1 0 0 101   0  0.000000e+00  0.000000e+00  1.398343e+03  1.398343e+03 0.0 0.0 9.0
21 -1 0 0 103 101  0.000000e+00  0.000000e+00 -4.430930e+03  4.430930e+03 0.0 0.0 9.0
 2  1 1 2 103   0 -1.205073e+03 -5.910071e+02 -3.970909e+03  4.191611e+03 0.0022 0.0 9.0
22  1 1 2   0   0  1.205073e+03  5.910071e+02  9.383215e+02  1.637662e+03 0.0 0.0 9.0
#pdf 2 21 2.151297e-01 6.816816e-01 5000.0 3.611048e-01 1.140393e-02
</event>
<event>
4 7 1.0 5000.0 7.905138e-03 7.739137e-02
 2 -1 0 0 101   0  0.000000e+00  0.000000e+00  3.225180e+03  3.225180e+03 0.0 0.0 9.0
21 -1 0 0 103 101  0.000000e+00  0.000000e+00 -1.893137e+03  1.893137e+03 0.0 0.0 9.0
22  1 1 2   0   0 -1.223665e+03 -2.111976e+03  2.677070e+02  2.455497e+03 0.0 0.0 9.0
 2  1 1 2 103   0  1.223665e+03  2.111976e+03  1.064336e+03  2.662820e+03 0.0022 0.0 9.0
#pdf 2 21 4.961816e-01 2.912518e-01 5000.0 7.259885e-02 2.600272e-01
</event>
<event>
4 7 1.0 5000.0 7.905138e-03 7.739137e-02
 2 -1 0 0 101   0  0.000000e+00  0.000000e+00  1.902192e+03  1.902192e+03 0.0 0.0 9.0
21 -1 0 0 103 101  0.000000e+00  0.000000e+00 -3.188532e+03  3.188532e+03 0.0 0.0 9.0
22  1 1 2   0   0 -4.118119e+02  2.338654e+03 -1.317990e+03  2.715877e+03 0.0 0.0 9.0
 2  1 1 2 103   0  4.118119e+02 -2.338654e+03  3.165019e+01  2.374846e+03 0.0022 0.0 9.0
#pdf 2 21 2.926449e-01 4.905433e-01 5000.0 2.582849e-01 7.584935e-02
</event>
<event>
4 7 1.0 5000.0 7.905138e-03 7.739137e-02
 2 -1 0 0 101   0  0.000000e+00  0.000000e+00  3.044517e+03  3.044517e+03 0.0 0.0 9.0
21 -1 0 0 103 101  0.000000e+00  0.000000e+00 -2.033640e+03  2.033640e+03 0.0 0.0 9.0
 2  1 1 2 103   0 -1.787184e+03 -1.033098e+03 -9.122272e+02  2.256873e+03 0.0022 0.0 9.0
22  1 1 2   0   0  1.787184e+03  1.033098e+03  1.923104e+03  2.821285e+03 0.0 0.0 9.0
#pdf 2 21 4.683873e-01 3.128677e-01 5000.0 8.961139e-02 2.336441e-01
</event>
<event>
4 7 1.0 5000.0 7.905138e-03 7.739137e-02
21 -1 0 0 103 101  0.000000e+00  0.000000e+00  1.705803e+03  1.705803e+03 0.0 0.0 9.0
 2 -1 0 0 101   0  0.000000e+00  0.000000e+00 -3.240830e+03  3.240830e+03 0.0 0.0 9.0
22  1 1 2   0   0  7.461004e+02  6.800092e+00 -3.112990e+03  3.201159e+03 0.0 0.0 9.0
 2  1 1 2 103   0 -7.461004e+02 -6.800092e+00  1.577963e+03  1.745474e+03 0.0022 0.0 9.0
#pdf 21 2 2.624312e-01 4.985893e-01 5000.0 5.714642e-02 2.873957e-03
</event>
<event>
4 7 1.0 5000.0 7.905138e-03 7.739137e-02
21 -1 0 0 103 101  0.000000e+00  0.000000e+00  3.341249e+03  3.341249e+03 0.0 0.0 9.0
 2 -1 0 0 101   0  0.000000e+00  0.000000e+00 -1.828098e+03  1.828098e+03 0.0 0.0 9.0
 2  1 1 2 103   0 -7.991911e+02 -7.313245e+02  3.079724e+03  3.264696e+03 0.0022 0.0 9.0
22  1 1 2   0   0  7.991911e+02  7.313245e+02 -1.566573e+03  1.904650e+03 0.0 0.0 9.0
#pdf 21 2 5.140382e-01 2.812458e-01 5000.0 2.318905e-03 4.532324e-02
</event>
<event>
4 7 1.0 5000.0 7.905138e-03 7.739137e-02
21 -1 0 0 103 101  0.000000e+00  0.000000e+00  1.688783e+03  1.688783e+03 0.0 0.0 9.0
 2 -1 0 0 101   0  0.000000e+00  0.000000e+00 -3.641407e+03  3.641407e+03 0.0 0.0 9.0
 2  1 1 2 103   0 -1.174024e+03  1.068284e+03 -3.023905e+03  3.415196e+03 0.0022 0.0 9.0
22  1 1 2   0   0  1.174024e+03 -1.068284e+03  1.071280e+03  1.914994e+03 0.0 0.0 9.0
#pdf 21 2 2.598127e-01 5.602165e-01 5000.0 5.904625e-02 1.189456e-03
</event>
<event>
4 7 1.0 5000.0 7.905138e-03 7.739137e-02
 2 -1 0 0 101   0  0.000000e+00  0.000000e+00  2.058333e+03  2.058333e+03 0.0 0.0 9.0
21 -1 0 0 103 101  0.000000e+00  0.000000e+00 -3.045085e+03  3.045085e+03 0.0 0.0 9.0
22  1 1 2   0   0  2.285077e+03  1.019934e+03 -4.147113e+02  2.536499e+03 0.0 0.0 9.0
 2  1 1 2 103   0 -2.285077e+03 -1.019934e+03 -5.720400e+02  2.566919e+03 0.0022 0.0 9.0
#pdf 2 21 3.166667e-01 4.684746e-01 5000.0 2.291533e-01 8.955406e-02
</event>
<event>
4 7 1.0 5000.0 7.905138e-03 7.739137e-02
 2 -1 0 0 101   0  0.000000e+00  0.000000e+00  2.910825e+03  2.910825e+03 0.0 0.0 9.0
21 -1 0 0 103 101  0.000000e+00  0.000000e+00 -2.158468e+03  2.158468e+03 0.0 0.0 9.0
 2  1 1 2 103   0  2.101609e+02  7.049506e+02 -2.046861e+03  2.175032e+03 0.0022 0.0 9.0
22  1 1 2   0   0 -2.101609e+02 -7.049506e+02  2.799219e+03  2.894261e+03 0.0 0.0 9.0
#pdf 2 21 4.478193e-01 3.320720e-01 5000.0 1.038286e-01 2.113768e-01
</event>
<event>
4 7 1.0 5000.0 7.905138e-03 7.739137e-02
21 -1 0 0 103 101  0.000000e+00  0.000000e+00  1.264697e+03  1.264697e+03 0.0 0.0 9.0
 2 -1 0 0 101   0  0.000000e+00  0.000000e+00 -3.824030e+03  3.824030e+03 0.0 0.0 9.0
22  1 1 2   0   0 -3.329448e+02 -1.513976e+03 -3.084428e+03  3.452054e+03 0.0 0.0 9.0
 2  1 1 2 103   0  3.329448e+02  1.513976e+03  5.250950e+02  1.636674e+03 0.0022 0.0 9.0
#pdf 21 2 1.945688e-01 5.883124e-01 5000.0 1.350206e-01 7.723470e-04
</event>
<event>
4 7 1.0 5000.0 7.905138e-03 7.739137e-02
 2 -1 0 0 101   0  0.000000e+00  0.000000e+00  4.039149e+03  4.039149e+03 0.0 0.0 9.0
21 -1 0 0 103 101  0.000000e+00  0.000000e+00 -1.604288e+03  1.604288e+03 0.0 0.0 9.0
22  1 1 2   0   0 -1.357667e+03 -1.978464e+03  2.159561e+03  3.228201e+03 0.0 0.0 9.0
 2  1 1 2 103   0  1.357667e+03  1.978464e+03  2.753000e+02  2.415237e+03 0.0022 0.0 9.0
#pdf 2 21 6.214075e-01 2.468136e-01 5000.0 2.310363e-02 3.179058e-01
</event>
<event>
4 7 1.0 5000.0 7.905138e-03 7.739137e-02
21 -1 0 0 103 101  0.000000e+00  0.000000e+00  2.093425e+03  2.093425e+03 0.0 0.0 9.0
 2 -1 0 0 101   0  0.000000e+00  0.000000e+00 -3.002856e+03  3.002856e+03 0.0 0.0 9.0
22  1 1 2   0   0  1.510622e+03 -1.506406e+03 -1.793402e+03  2.787029e+03 0.0 0.0 9.0
 2  1 1 2 103   0 -1.510622e+03  1.506406e+03  8.839720e+02  2.309252e+03 0.0022 0.0 9.0
#pdf 21 2 3.220655e-01 4.619778e-01 5000.0 2.748883e-02 4.709982e-03
</event>
<event>
4 7 1.0 5000.0 7.905138e-03 7.739137e-02
 2 -1 0 0 101   0  0.000000e+00  0.000000e+00  1.547058e+03  1.547058e+03 0.0 0.0 9.0
21 -1 0 0 103 101  0.000000e+00  0.000000e+00 -4.026511e+03  4.026511e+03 0.0 0.0 9.0
22  1 1 2   0   0  7.415197e+02  2.344497e+03 -7.624312e+02  2.574455e+03 0.0 0.0 9.0
 2  1 1 2 103   0 -7.415197e+02 -2.344497e+03 -1.717022e+03  2.999114e+03 0.0022 0.0 9.0
#pdf 2 21 2.380089e-01 6.194633e-01 5000.0 3.297706e-01 2.358862e-02
</event>
<event>
4 7 1.0 5000.0 7.905138e-03 7.739137e-02
21 -1 0 0 103 101  0.000000e+00  0.000000e+00  2.332958e+03  2.332958e+03 0.0 0.0 9.0
 2 -1 0 0 101   0  0.000000e+00  0.000000e+00 -2.624659e+03  2.624659e+03 0.0 0.0 9.0
 2  1 1 2 103   0 -2.988265e+02 -9.697208e+02 -2.406660e+03  2.611833e+03 0.0022 0.0 9.0
22  1 1 2   0   0  2.988265e+02  9.697208e+02  2.114959e+03  2.345785e+03 0.0 0.0 9.0
#pdf 21 2 3.589166e-01 4.037938e-01 5000.0 1.747887e-02 9.990620e-03
</event>
<event>
4 7 1.0 5000.0 7.905138e-03 7.739137e-02
21 -1 0 0 103 101  0.000000e+00  0.000000e+00  2.658970e+03  2.658970e+03 0.0 0.0 9.0
 2 -1 0 0 101   0  0.000000e+00  0.000000e+00 -2.155515e+03  2.155515e+03 0.0 0.0 9.0
 2  1 1 2 103   0  2.393458e+03 -3.895020e+00  1.985853e+02  2.401686e+03 0.0022 0.0 9.0
22  1 1 2   0   0 -2.393458e+03  3.895020e+00  3.048700e+02  2.412800e+03 0.0 0.0 9.0
#pdf 21 2 4.090724e-01 3.316177e-01 5000.0 9.343556e-03 2.445669e-02
</event>
<event>
4 7 1.0 5000.0 7.905138e-03 7.739137e-02
21 -1 0 0 103 101  0.000000e+00  0.000000e+00  1.803348e+03  1.803348e+03 0.0 0.0 9.0
 2 -1 0 0 101   0  0.000000e+00  0.000000e+00 -3.490823e+03  3.490823e+03 0.0 0.0 9.0
 2  1 1 2 103   0 -4.657432e+02  1.499458e+03  1.220961e+03  1.988979e+03 0.0022 0.0 9.0
22  1 1 2   0   0  4.657432e+02 -1.499458e+03 -2.908436e+03  3.305192e+03 0.0 0.0 9.0
#pdf 21 2 2.774381e-01 5.370497e-01 5000.0 4.749904e-02 1.669915e-03
</event>
<event>
4 7 1.0 5000.0 7.905138e-03 7.739137e-02
 2 -1 0 0 101   0  0.000000e+00  0.000000e+00  3.452516e+03  3.452516e+03 0.0 0.0 9.0
21 -1 0 0 103 101  0.000000e+00  0.000000e+00 -1.792507e+03  1.792507e+03 0.0 0.0 9.0
 2  1 1 2 103   0 -1.360120e+03 -1.987423e+03  1.726075e+02  2.414450e+03 0.0022 0.0 9.0
22  1 1 2   0   0  1.360120e+03  1.987423e+03  1.487402e+03  2.830572e+03 0.0 0.0 9.0
#pdf 2 21 5.311563e-01 2.757702e-01 5000.0 5.460394e-02 2.797044e-01
</event>
<event>
4 7 1.0 5000.0 7.905138e-03 7.739137e-02
 2 -1 0 0 101   0  0.000000e+00  0.000000e+00  2.875512e+03  2.875512e+03 0.0 0.0 9.0
21 -1 0 0 103 101  0.000000e+00  0.000000e+00 -2.157412e+03  2.157412e+03 0.0 0.0 9.0
22  1 1 2   0   0  2.225325e+03 -1.109600e+03  2.148180e+02  2.495883e+03 0.0 0.0 9.0
 2  1 1 2 103   0 -2.225325e+03  1.109600e+03  5.032828e+02  2.537041e+03 0.0022 0.0 9.0
#pdf 2 21 4.423865e-01 3.319095e-01 5000.0 1.078425e-01 2.115603e-01
</event>
<event>
4 7 1.0 5000.0 7.905138e-03 7.739137e-02
21 -1 0 0 103 101  0.000000e+00  0.000000e+00  2.833937e+03  2.833937e+03 0.0 0.0 9.0
 2 -1 0 0 101   0  0.000000e+00  0.000000e+00 -2.251519e+03  2.251519e+03 0.0 0.0 9.0
22  1 1 2   0   0  1.056837e+03  1.168798e+01  2.600663e+03  2.807221e+03 0.0 0.0 9.0
 2  1 1 2 103   0 -1.056837e+03 -1.168798e+01 -2.018245e+03  2.278235e+03 0.0022 0.0 9.0
#pdf 21 2 4.359903e-01 3.463876e-01 5000.0 6.624176e-03 2.040498e-02
</event>
<event>
4 7 1.0 5000.0 7.905138e-03 7.739137e-02
21 -1 0 0 103 101  0.000000e+00  0.000000e+00  4.925200e+03  4.925200e+03 0.0 0.0 9.0
 2 -1 0 0 101   0  0.000000e+00  0.000000e+00 -1.219979e+03  1.219979e+03 0.0 0.0 9.0
22  1 1 2   0   0 -9.943027e+02 -1.232627e+03  4.197863e+03  4.486654e+03 0.0 0.0 9.0
 2  1 1 2 103   0  9.943027e+02  1.232627e+03 -4.926421e+02  1.658525e+03 0.0022 0.0 9.0
#pdf 21 2 7.577231e-01 1.876890e-01 5000.0 3.061752e-05 1.480238e-01
</event>
<event>
4 7 1.0 5000.0 7.905138e-03 7.739137e-02
 2 -1 0 0 101   0  0.000000e+00  0.000000e+00  1.674991e+03  1.674991e+03 0.0 0.0 9.0
21 -1 0 0 103 101  0.000000e+00  0.000000e+00 -3.709651e+03  3.709651e+03 0.0 0.0 9.0
22  1 1 2   0   0  1.473076e+03 -8.786276e+01  1.152509e+03  1.872418e+03 0.0 0.0 9.0
 2  1 1 2 103   0 -1.473076e+03  8.786276e+01 -3.187168e+03  3.512224e+03 0.0022 0.0 9.0
#pdf 2 21 2.576910e-01 5.707155e-01 5000.0 3.033521e-01 3.836732e-02
</event>
<event>
4 7 1.0 5000.0 7.905138e-03 7.739137e-02
21 -1 0 0 103 101  0.000000e+00  0.000000e+00  2.190973e+03  2.190973e+03 0.0 0.0 9.0
 2 -1 0 0 101   0  0.000000e+00  0.000000e+00 -2.887228e+03  2.887228e+03 0.0 0.0 9.0
 2  1 1 2 103   0 -3.132464e+01 -2.360150e+03  5.288022e+02  2.418868e+03 0.0022 0.0 9.0
22  1 1 2   0   0  3.132464e+01  2.360150e+03 -1.225057e+03  2.659333e+03 0.0 0.0 9.0
#pdf 21 2 3.370727e-01 4.441889e-01 5000.0 2.286999e-02 5.952448e-03
</event>
<event>
4 7 1.0 5000.0 7.905138e-03 7.739137e-02
21 -1 0 0 103 101  0.000000e+00  0.000000e+00  2.261867e+03  2.261867e+03 0.0 0.0 9.0
 2 -1 0 0 101   0  0.000000e+00  0.000000e+00 -2.699504e+03  2.699504e+03 0.0 0.0 9.0
22  1 1 2   0   0 -1.485194e+03 -1.073049e+03  1.445585e+03  2.333871e+03 0.0 0.0 9.0
 2  1 1 2 103   0  1.485194e+03  1.073049e+03 -1.883222e+03  2.627501e+03 0.0022 0.0 9.0
#pdf 21 2 3.479796e-01 4.153083e-01 5000.0 2.001073e-02 8.630777e-03
</event>
<event>
4 7 1.0 5000.0 7.905138e-03 7.739137e-02
 2 -1 0 0 101   0  0.000000e+00  0.000000e+00  3.124711e+03  3.124711e+03 0.0 0.0 9.0
21 -1 0 0 103 101  0.000000e+00  0.000000e+00 -2.072985e+03  2.072985e+03 0.0 0.0 9.0
 2  1 1 2 103   0  1.492723e+01  2.091511e+03 -9.548834e+02  2.299226e+03 0.0022 0.0 9.0
22  1 1 2   0   0 -1.492723e+01 -2.091511e+03  2.006610e+03  2.898469e+03 0.0 0.0 9.0
#pdf 2 21 4.807248e-01 3.189207e-01 5000.0 8.174949e-02 2.265094e-01
</event>
<event>
4 7 1.0 5000.0 7.905138e-03 7.739137e-02
21 -1 0 0 103 101  0.000000e+00  0.000000e+00  1.355606e+03  1.355606e+03 0.0 0.0 9.0
 2 -1 0 0 101   0  0.000000e+00  0.000000e+00 -4.263083e+03  4.263083e+03 0.0 0.0 9.0
 2  1 1 2 103   0 -6.413252e+02 -2.316817e+03 -1.440761e+03  2.802629e+03 0.0022 0.0 9.0
22  1 1 2   0   0  6.413252e+02  2.316817e+03 -1.466716e+03  2.816060e+03 0.0 0.0 9.0
#pdf 21 2 2.085548e-01 6.558589e-01 5000.0 1.125573e-01 2.498690e-04
</event>
<event>
4 7 1.0 5000.0 7.905138e-03 7.739137e-02
 2 -1 0 0 101   0  0.000000e+00  0.000000e+00  1.852883e+03  1.852883e+03 0.0 0.0 9.0
21 -1 0 0 103 101  0.000000e+00  0.000000e+00 -3.393609e+03  3.393609e+03 0.0 0.0 9.0
22  1 1 2   0   0  2.491893e+03 -1.109701e+02 -1.039355e+03  2.702240e+03 0.0 0.0 9.0
 2  1 1 2 103   0 -2.491893e+03  1.109701e+02 -5.013717e+02  2.544252e+03 0.0022 0.0 9.0
#pdf 2 21 2.850589e-01 5.220937e-01 5000.0 2.678368e-01 5.891781e-02
</event>
<event>
4 7 1.0 5000.0 7.905138e-03 7.739137e-02
 2 -1 0 0 101   0  0.000000e+00  0.000000e+00  4.234759e+03  4.234759e+03 0.0 0.0 9.0
21 -1 0 0 103 101  0.000000e+00  0.000000e+00 -1.424504e+03  1.424504e+03 0.0 0.0 9.0
22  1 1 2   0   0 -1.501474e+03 -1.789807e+03  5.318200e+02  2.395968e+03 0.0 0.0 9.0
 2  1 1 2 103   0  1.501474e+03  1.789807e+03  2.278435e+03  3.263296e+03 0.0022 0.0 9.0
#pdf 2 21 6.515014e-01 2.191545e-01 5000.0 1.650397e-02 3.555714e-01
</event>
<event>
4 7 1.0 5000.0 7.905138e-03 7.739137e-02
21 -1 0 0 103 101  0.000000e+00  0.000000e+00  2.741262e+03  2.741262e+03 0.0 0.0 9.0
 2 -1 0 0 101   0  0.000000e+00  0.000000e+00 -1.970653e+03  1.970653e+03 0.0 0.0 9.0
 2  1 1 2 103   0 -1.632321e+03  1.125340e+03  1.614796e+03  2.557035e+03 0.0022 0.0 9.0
22  1 1 2   0   0  1.632321e+03 -1.125340e+03 -8.441861e+02  2.154881e+03 0.0 0.0 9.0
#pdf 21 2 4.217327e-01 3.031774e-01 5000.0 7.952400e-03 3.466676e-02
</event>
<event>
4 7 1.0 5000.0 7.905138e-03 7.739137e-02
 2 -1 0 0 101   0  0.000000e+00  0.000000e+00  1.925758e+03  1.925758e+03 0.0 0.0 9.0
21 -1 0 0 103 101  0.000000e+00  0.000000e+00 -3.262074e+03  3.262074e+03 0.0 0.0 9.0
22  1 1 2   0   0  9.785799e+02 -1.111881e+03  1.424350e+03  2.054914e+03 0.0 0.0 9.0
 2  1 1 2 103   0 -9.785799e+02  1.111881e+03 -2.760666e+03  3.132918e+03 0.0022 0.0 9.0
#pdf 2 21 2.962704e-01 5.018575e-01 5000.0 2.537815e-01 6.942768e-02
</event>
<event>
4 7 1.0 5000.0 7.905138e-03 7.739137e-02
 2 -1 0 0 101   0  0.000000e+00  0.000000e+00  2.113831e+03  2.113831e+03 0.0 0.0 9.0
21 -1 0 0 103 101  0.000000e+00  0.000000e+00 -3.010412e+03  3.010412e+03 0.0 0.0 9.0
22  1 1 2   0   0  1.471575e+03  1.798185e+03  5.491868e+02  2.387595e+03 0.0 0.0 9.0
 2  1 1 2 103   0 -1.471575e+03 -1.798185e+03 -1.445768e+03  2.736649e+03 0.0022 0.0 9.0
#pdf 2 21 3.252048e-01 4.631404e-01 5000.0 2.192119e-01 9.309966e-02
</event>
<event>
4 7 1.0 5000.0 7.905138e-03 7.739137e-02
 2 -1 0 0 101   0  0.000000e+00  0.000000e+00  4.358597e+03  4.358597e+03 0.0 0.0 9.0
21 -1 0 0 103 101  0.000000e+00  0.000000e+00 -1.358302e+03  1.358302e+03 0.0 0.0 9.0
 2  1 1 2 103   0  2.368713e+03  3.193708e+02  2.035278e+03  3.139292e+03 0.0022 0.0 9.0
22  1 1 2   0   0 -2.368713e+03 -3.193708e+02  9.650179e+02  2.577607e+03 0.0 0.0 9.0
#pdf 2 21 6.705534e-01 2.089695e-01 5000.0 1.312147e-02 3.696448e-01
</event>
<event>
4 7 1.0 5000.0 7.905138e-03 7.739137e-02
 2 -1 0 0 101   0  0.000000e+00  0.000000e+00  3.495590e+03  3.495590e+03 0.0 0.0 9.0
21 -1 0 0 103 101  0.000000e+00  0.000000e+00 -1.764399e+03  1.764399e+03 0.0 0.0 9.0
 2  1 1 2 103   0  1.240866e+03 -2.151246e+03  8.687031e+02  2.631018e+03 0.0022 0.0 9.0
22  1 1 2   0   0 -1.240866e+03  2.151246e+03  8.624879e+02  2.628972e+03 0.0 0.0 9.0
#pdf 2 21 5.377831e-01 2.714460e-01 5000.0 5.158244e-02 2.853051e-01
</event>
<event>
4 7 1.0 5000.0 7.905138e-03 7.739137e-02
21 -1 0 0 103 101  0.000000e+00  0.000000e+00  3.224757e+03  3.224757e+03 0.0 0.0 9.0
 2 -1 0 0 101   0  0.000000e+00  0.000000e+00 -1.822769e+03  1.822769e+03 0.0 0.0 9.0
 2  1 1 2 103   0 -7.276417e+02 -6.387732e+02  3.014760e+03  3.166429e+03 0.0022 0.0 9.0
22  1 1 2   0   0  7.276417e+02  6.387732e+02 -1.612772e+03  1.881098e+03 0.0 0.0 9.0
#pdf 21 2 4.961165e-01 2.804260e-01 5000.0 2.973520e-03 4.578380e-02
</event>
<event>
4 7 1.0 5000.0 7.905138e-03 7.739137e-02
 2 -1 0 0 101   0  0.000000e+00  0.000000e+00  2.495283e+03  2.495283e+03 0.0 0.0 9.0
21 -1 0 0 103 101  0.000000e+00  0.000000e+00 -1.873913e+03  1.873913e+03 0.0 0.0 9.0
22  1 1 2   0   0 -1.601622e+03  5.849153e+02 -1.032868e+03  1.993523e+03 0.0 0.0 9.0
 2  1 1 2 103   0  1.601622e+03 -5.849153e+02  1.654238e+03  2.375673e+03 0.0022 0.0 9.0
#pdf 2 21 3.838897e-01 2.882943e-01 5000.0 1.574380e-01 2.637450e-01
</event>
<event>
4 7 1.0 5000.0 7.905138e-03 7.739137e-02
 2 -1 0 0 101   0  0.000000e+00  0.000000e+00  2.586270e+03  2.586270e+03 0.0 0.0 9.0
21 -1 0 0 103 101  0.000000e+00  0.000000e+00 -2.665280e+03  2.665280e+03 0.0 0.0 9.0
22  1 1 2   0   0  2.424868e+03  3.542519e+02 -9.817641e+02  2.639951e+03 0.0 0.0 9.0
 2  1 1 2 103   0 -2.424868e+03 -3.542519e+02  9.027547e+02  2.611599e+03 0.0022 0.0 9.0
#pdf 2 21 3.978877e-01 4.100430e-01 5000.0 1.444751e-01 1.337694e-01
</event>
<event>
4 7 1.0 5000.0 7.905138e-03 7.739137e-02
 2 -1 0 0 101   0  0.000000e+00  0.000000e+00  3.200345e+03  3.200345e+03 0.0 0.0 9.0
21 -1 0 0 103 101  0.000000e+00  0.000000e+00 -1.837827e+03  1.837827e+03 0.0 0.0 9.0
22  1 1 2   0   0 -1.200685e+03 -5.968391e+02  2.780323e+03  3.086755e+03 0.0 0.0 9.0
 2  1 1 2 103   0  1.200685e+03  5.968391e+02 -1.417804e+03  1.951417e+03 0.0022 0.0 9.0
#pdf 2 21 4.923608e-01 2.827426e-01 5000.0 7.479060e-02 2.707784e-01
</event>
<event>
4 7 1.0 5000.0 7.905138e-03 7.739137e-02
 2 -1 0 0 101   0  0.000000e+00  0.000000e+00  2.982326e+03  2.982326e+03 0.0 0.0 9.0
21 -1 0 0 103 101  0.000000e+00  0.000000e+00 -2.094090e+03  2.094090e+03 0.0 0.0 9.0
 2  1 1 2 103   0  1.129851e+03  1.356783e+03  2.240397e+03  2.852508e+03 0.0022 0.0 9.0
22  1 1 2   0   0 -1.129851e+03 -1.356783e+03 -1.352161e+03  2.223907e+03 0.0 0.0 9.0
#pdf 2 21 4.588194e-01 3.221676e-01 5000.0 9.604654e-02 2.227248e-01
</event>
<event>
4 7 1.0 5000.0 7.905138e-03 7.739137e-02
 2 -1 0 0 101   0  0.000000e+00  0.000000e+00  2.845273e+03  2.845273e+03 0.0 0.0 9.0
21 -1 0 0 103 101  0.000000e+00  0.000000e+00 -2.191344e+03  2.191344e+03 0.0 0.0 9.0
22  1 1 2   0   0 -6.507601e+02 -2.410702e+03  3.263200e+02  2.518225e+03 0.0 0.0 9.0
 2  1 1 2 103   0  6.507601e+02  2.410702e+03  3.276090e+02  2.518392e+03 0.0022 0.0 9.0
#pdf 2 21 4.377343e-01 3.371299e-01 5000.0 1.113523e-01 2.057116e-01
</event>
<event>
4 7 1.0 5000.0 7.905138e-03 7.739137e-02
21 -1 0 0 103 101  0.000000e+00  0.000000e+00  2.058280e+03  2.058280e+03 0.0 0.0 9.0
 2 -1 0 0 101   0  0.000000e+00  0.000000e+00 -2.715112e+03  2.715112e+03 0.0 0.0 9.0
22  1 1 2   0   0 -4.377726e+02  1.752062e+03 -1.868549e+03  2.598623e+03 0.0 0.0 9.0
 2  1 1 2 103   0  4.377726e+02 -1.752062e+03  1.211716e+03  2.174769e+03 0.0022 0.0 9.0
#pdf 21 2 3.166584e-01 4.177096e-01 5000.0 2.937357e-02 8.371071e-03
</event>
<event>
4 7 1.0 5000.0 7.905138e-03 7.739137e-02
 2 -1 0 0 101   0  0.000000e+00  0.000000e+00  3.083385e+03  3.083385e+03 0.0 0.0 9.0
21 -1 0 0 103 101  0.000000e+00  0.000000e+00 -2.015512e+03  2.015512e+03 0.0 0.0 9.0
22  1 1 2   0   0  2.625003e+02 -2.129748e+03 -7.636455e+02  2.277693e+03 0.0 0.0 9.0
 2  1 1 2 103   0 -2.625003e+02  2.129748e+03  1.831519e+03  2.821204e+03 0.0022 0.0 9.0
#pdf 2 21 4.743669e-01 3.100788e-01 5000.0 8.573880e-02 2.369698e-01
</event>
<event>
4 7 1.0 5000.0 7.905138e-03 7.739137e-02
 2 -1 0 0 101   0  0.000000e+00  0.000000e+00  1.170964e+03  1.170964e+03 0.0 0.0 9.0
21 -1 0 0 103 101  0.000000e+00  0.000000e+00 -4.839800e+03  4.839800e+03 0.0 0.0 9.0
22  1 1 2   0   0 -8.959417e+02  2.070226e+03 -8.740567e+02  2.419199e+03 0.0 0.0 9.0
 2  1 1 2 103   0  8.959417e+02 -2.070226e+03 -2.794779e+03  3.591565e+03 0.0022 0.0 9.0
#pdf 2 21 1.801483e-01 7.445845e-01 5000.0 4.092424e-01 4.632458e-03
</event>
<event>
4 7 1.0 5000.0 7.905138e-03 7.739137e-02
21 -1 0 0 103 101  0.000000e+00  0.000000e+00  1.822967e+03  1.822967e+03 0.0 0.0 9.0
 2 -1 0 0 101   0  0.000000e+00  0.000000e+00 -3.521716e+03  3.521716e+03 0.0 0.0 9.0
22  1 1 2   0   0 -1.128664e+02 -2.381090e+03  5.646103e+01  2.384432e+03 0.0 0.0 9.0
 2  1 1 2 103   0  1.128664e+02  2.381090e+03 -1.755210e+03  2.960252e+03 0.0022 0.0 9.0
#pdf 21 2 2.804565e-01 5.418025e-01 5000.0 4.576660e-02 1.558656e-03
</event>
<event>
4 7 1.0 5000.0 7.905138e-03 7.739137e-02
21 -1 0 0 103 101  0.000000e+00  0.000000e+00  3.208771e+03  3.208771e+03 0.0 0.0 9.0
 2 -1 0 0 101   0  0.000000e+00  0.000000e+00 -1.958552e+03  1.958552e+03 0.0 0.0 9.0
22  1 1 2   0   0  2.307953e+03  6.850134e+02 -9.533174e+01  2.409353e+03 0.0 0.0 9.0
 2  1 1 2 103   0 -2.307953e+03 -6.850134e+02  1.345550e+03  2.757970e+03 0.0022 0.0 9.0
#pdf 21 2 4.936570e-01 3.013157e-01 5000.0 3.075355e-03 3.544599e-02
</event>
<event>
4 7 1.0 5000.0 7.905138e-03 7.739137e-02
 2 -1 0 0 101   0  0.000000e+00  0.000000e+00  1.375418e+03  1.375418e+03 0.0 0.0 9.0
21 -1 0 0 103 101  0.000000e+00  0.000000e+00 -3.253088e+03  3.253088e+03 0.0 0.0 9.0
 2  1 1 2 103   0 -1.779946e+03  5.756443e+02 -2.019023e+03  2.752458e+03 0.0022 0.0 9.0
22  1 1 2   0   0  1.779946e+03 -5.756443e+02  1.413525e+02  1.876047e+03 0.0 0.0 9.0
#pdf 2 21 2.116027e-01 5.004751e-01 5000.0 3.659813e-01 7.019085e-02
</event>
<event>
4 7 1.0 5000.0 7.905138e-03 7.739137e-02
 2 -1 0 0 101   0  0.000000e+00  0.000000e+00  2.105714e+03  2.105714e+03 0.0 0.0 9.0
21 -1 0 0 103 101  0.000000e+00  0.000000e+00 -2.994227e+03  2.994227e+03 0.0 0.0 9.0
22  1 1 2   0   0 -5.808777e+01 -1.937805e+03  1.176309e+03  2.267635e+03 0.0 0.0 9.0
 2  1 1 2 103   0  5.808777e+01  1.937805e+03 -2.064822e+03  2.832305e+03 0.0022 0.0 9.0
#pdf 2 21 3.239559e-01 4.606502e-01 5000.0 2.206531e-01 9.478845e-02
</event>
<event>
4 7 1.0 5000.0 7.905138e-03 7.739137e-02
 2 -1 0 0 101   0  0.000000e+00  0.000000e+00  2.388565e+03  2.388565e+03 0.0 0.0 9.0
21 -1 0 0 103 101  0.000000e+00  0.000000e+00 -2.680848e+03  2.680848e+03 0.0 0.0 9.0
 2  1 1 2 103   0  1.434452e+03  4.911572e+02  1.883189e+03  2.417703e+03 0.0022 0.0 9.0
22  1 1 2   0   0 -1.434452e+03 -4.911572e+02 -2.175472e+03  2.651710e+03 0.0 0.0 9.0
#pdf 2 21 3.674716e-01 4.124381e-01 5000.0 1.735097e-01 1.317227e-01
</event>
<event>
4 7 1.0 5000.0 7.905138e-03 7.739137e-02
21 -1 0 0 103 101  0.000000e+00  0.000000e+00  1.829765e+03  1.829765e+03 0.0 0.0 9.0
 2 -1 0 0 101   0  0.000000e+00  0.000000e+00 -3.247854e+03  3.247854e+03 0.0 0.0 9.0
 2  1 1 2 103   0 -1.218629e+02 -2.016771e+03  7.115170e+02  2.142072e+03 0.0022 0.0 9.0
22  1 1 2   0   0  1.218629e+02  2.016771e+03 -2.129607e+03  2.935548e+03 0.0 0.0 9.0
#pdf 21 2 2.815023e-01 4.996699e-01 5000.0 4.518003e-02 2.831279e-03
</event>
<event>
4 7 1.0 5000.0 7.905138e-03 7.739137e-02
 2 -1 0 0 101   0  0.000000e+00  0.000000e+00  1.771308e+03  1.771308e+03 0.0 0.0 9.0
21 -1 0 0 103 101  0.000000e+00  0.000000e+00 -2.619859e+03  2.619859e+03 0.0 0.0 9.0
22  1 1 2   0   0  3.526942e+02  1.718295e+03  8.502043e+02  1.949302e+03 0.0 0.0 9.0
 2  1 1 2 103   0 -3.526942e+02 -1.718295e+03 -1.698755e+03  2.441864e+03 0.0022 0.0 9.0
#pdf 2 21 2.725089e-01 4.030552e-01 5000.0 2.839244e-01 1.398576e-01
</event>
<event>
4 7 1.0 5000.0 7.905138e-03 7.739137e-02
 2 -1 0 0 101   0  0.000000e+00  0.000000e+00  3.121801e+03  3.121801e+03 0.0 0.0 9.0
21 -1 0 0 103 101  0.000000e+00  0.000000e+00 -2.073226e+03  2.073226e+03 0.0 0.0 9.0
 2  1 1 2 103   0  1.086991e+03  2.189914e+03  1.242583e+03  2.742496e+03 0.0022 0.0 9.0
22  1 1 2   0   0 -1.086991e+03 -2.189914e+03 -1.940078e+02  2.452532e+03 0.0 0.0 9.0
#pdf 2 21 4.802772e-01 3.189579e-01 5000.0 8.202586e-02 2.264659e-01
</event>
<event>
4 7 1.0 5000.0 7.905138e-03 7.739137e-02
 2 -1 0 0 101   0  0.000000e+00  0.000000e+00  2.496803e+03  2.496803e+03 0.0 0.0 9.0
21 -1 0 0 103 101  0.000000e+00  0.000000e+00 -2.336369e+03  2.336369e+03 0.0 0.0 9.0
22  1 1 2   0   0  2.408950e+03  1.111506e+01  2.543487e+02  2.422366e+03 0.0 0.0 9.0
 2  1 1 2 103   0 -2.408950e+03 -1.111506e+01 -9.391501e+01  2.410806e+03 0.0022 0.0 9.0
#pdf 2 21 3.841235e-01 3.594414e-01 5000.0 1.572158e-01 1.817271e-01
</event>
<event>
4 7 1.0 5000.0 7.905138e-03 7.739137e-02
 2 -1 0 0 101   0  0.000000e+00  0.000000e+00  1.412504e+03  1.412504e+03 0.0 0.0 9.0
21 -1 0 0 103 101  0.000000e+00  0.000000e+00 -3.902128e+03  3.902128e+03 0.0 0.0 9.0
 2  1 1 2 103   0  3.806672e+02 -2.202566e+03 -2.057529e+03  3.038030e+03 0.0022 0.0 9.0
22  1 1 2   0   0 -3.806672e+02  2.202566e+03 -4.320960e+02  2.276601e+03 0.0 0.0 9.0
#pdf 2 21 2.173082e-01 6.003274e-01 5000.0 3.581063e-01 2.876781e-02
</event>
<event>
4 7 1.0 5000.0 7.905138e-03 7.739137e-02
21 -1 0 0 103 101  0.000000e+00  0.000000e+00  2.645420e+03  2.645420e+03 0.0 0.0 9.0
 2 -1 0 0 101   0  0.000000e+00  0.000000e+00 -2.331825e+03  2.331825e+03 0.0 0.0 9.0
22  1 1 2   0   0 -1.050219e+03 -2.227455e+03 -1.665563e+02  2.468250e+03 0.0 0.0 9.0
 2  1 1 2 103   0  1.050219e+03  2.227455e+03  4.801511e+02  2.508996e+03 0.0022 0.0 9.0
#pdf 21 2 4.069877e-01 3.587424e-01 5000.0 9.594719e-03 1.751626e-02
</event>
<event>
4 7 1.0 5000.0 7.905138e-03 7.739137e-02
 2 -1 0 0 101   0  0.000000e+00  0.000000e+00  3.377916e+03  3.377916e+03 0.0 0.0 9.0
21 -1 0 0 103 101  0.000000e+00  0.000000e+00 -2.406649e+03  2.406649e+03 0.0 0.0 9.0
 2  1 1 2 103   0  1.960665e+03 -2.064570e+03  6.388092e+02  2.918001e+03 0.0022 0.0 9.0
22  1 1 2   0   0 -1.960665e+03  2.064570e+03  3.324579e+02  2.866563e+03 0.0 0.0 9.0
#pdf 2 21 5.196793e-01 3.702536e-01 5000.0 6.010647e-02 1.707130e-01
</event>
<event>
4 7 1.0 5000.0 7.905138e-03 7.739137e-02
21 -1 0 0 103 101  0.000000e+00  0.000000e+00  1.622404e+03  1.622404e+03 0.0 0.0 9.0
 2 -1 0 0 101   0  0.000000e+00  0.000000e+00 -3.394796e+03  3.394796e+03 0.0 0.0 9.0
 2  1 1 2 103   0  1.817983e+02  2.204430e+03 -1.724578e+03  2.804770e+03 0.0022 0.0 9.0
22  1 1 2   0   0 -1.817983e+02 -2.204430e+03 -4.781455e+01  2.212431e+03 0.0 0.0 9.0
#pdf 21 2 2.496006e-01 5.222764e-01 5000.0 6.706499e-02 2.064166e-03
</event>
<event>
4 7 1.0 5000.0 7.905138e-03 7.739137e-02
 2 -1 0 0 101   0  0.000000e+00  0.000000e+00  2.199010e+03  2.199010e+03 0.0 0.0 9.0
21 -1 0 0 103 101  0.000000e+00  0.000000e+00 -2.755983e+03  2.755983e+03 0.0 0.0 9.0
22  1 1 2   0   0  1.953125e+03  1.391862e+03 -8.374145e+02  2.540323e+03 0.0 0.0 9.0
 2  1 1 2 103   0 -1.953125e+03 -1.391862e+03  2.804419e+02  2.414669e+03 0.0022 0.0 9.0
#pdf 2 21 3.383092e-01 4.239973e-01 5000.0 2.044029e-01 1.221242e-01
</event>
<event>
4 7 1.0 5000.0 7.905138e-03 7.739137e-02
21 -1 0 0 103 101  0.000000e+00  0.000000e+00  2.043456e+03  2.043456e+03 0.0 0.0 9.0
 2 -1 0 0 101   0  0.000000e+00  0.000000e+00 -2.990597e+03  2.990597e+03 0.0 0.0 9.0
 2  1 1 2 103   0  2.054121e+03  1.222373e+03  1.684056e+02  2.396241e+03 0.0022 0.0 9.0
22  1 1 2   0   0 -2.054121e+03 -1.222373e+03 -1.115547e+03  2.637812e+03 0.0 0.0 9.0
#pdf 21 2 3.143778e-01 4.600918e-01 5000.0 3.021314e-02 4.829599e-03
</event>
<event>
4 7 1.0 5000.0 7.905138e-03 7.739137e-02
 2 -1 0 0 101   0  0.000000e+00  0.000000e+00  3.516625e+03  3.516625e+03 0.0 0.0 9.0
21 -1 0 0 103 101  0.000000e+00  0.000000e+00 -1.754169e+03  1.754169e+03 0.0 0.0 9.0
22  1 1 2   0   0  1.497811e+03 -1.449855e+03  2.313974e+03  3.114481e+03 0.0 0.0 9.0
 2  1 1 2 103   0 -1.497811e+03  1.449855e+03 -5.515173e+02  2.156314e+03 0.0022 0.0 9.0
#pdf 2 21 5.410193e-01 2.698722e-01 5000.0 5.015800e-02 2.873543e-01
</event>
<event>
4 7 1.0 5000.0 7.905138e-03 7.739137e-02
 2 -1 0 0 101   0  0.000000e+00  0.000000e+00  2.412409e+03  2.412409e+03 0.0 0.0 9.0
21 -1 0 0 103 101  0.000000e+00  0.000000e+00 -1.960515e+03  1.960515e+03 0.0 0.0 9.0
22  1 1 2   0   0  1.420269e+02 -1.045465e+03 -1.685971e+03  1.988886e+03 0.0 0.0 9.0
 2  1 1 2 103   0 -1.420269e+02  1.045465e+03  2.137865e+03  2.384038e+03 0.0022 0.0 9.0
#pdf 2 21 3.711398e-01 3.016177e-01 5000.0 1.698292e-01 2.472172e-01
</event>
<event>
4 7 1.0 5000.0 7.905138e-03 7.739137e-02
21 -1 0 0 103 101  0.000000e+00  0.000000e+00  2.795394e+03  2.795394e+03 0.0 0.0 9.0
 2 -1 0 0 101   0  0.000000e+00  0.000000e+00 -2.367582e+03  2.367582e+03 0.0 0.0 9.0
22  1 1 2   0   0 -1.543789e+02  1.239526e+03 -2.042870e+03  2.394488e+03 0.0 0.0 9.0
 2  1 1 2 103   0  1.543789e+02 -1.239526e+03  2.470682e+03  2.768488e+03 0.0022 0.0 9.0
#pdf 21 2 4.300606e-01 3.642434e-01 5000.0 7.145474e-03 1.637327e-02
</event>
<event>
4 7 1.0 5000.0 7.905138e-03 7.739137e-02
 2 -1 0 0 101   0  0.000000e+00  0.000000e+00  1.545443e+03  1.545443e+03 0.0 0.0 9.0
21 -1 0 0 103 101  0.000000e+00  0.000000e+00 -4.044744e+03  4.044744e+03 0.0 0.0 9.0
 2  1 1 2 103   0 -1.769548e+03  1.592708e+03 -3.961131e+02  2.413488e+03 0.0022 0.0 9.0
22  1 1 2   0   0  1.769548e+03 -1.592708e+03 -2.103188e+03  3.176699e+03 0.0 0.0 9.0
#pdf 2 21 2.377605e-01 6.222684e-01 5000.0 3.301088e-01 2.289124e-02
</event>
<event>
4 7 1.0 5000.0 7.905138e-03 7.739137e-02
 2 -1 0 0 101   0  0.000000e+00  0.000000e+00  4.977356e+03  4.977356e+03 0.0 0.0 9.0
21 -1 0 0 103 101  0.000000e+00  0.000000e+00 -1.290126e+03  1.290126e+03 0.0 0.0 9.0
22  1 1 2   0   0  1.828067e+03  9.358551e+02  7.795482e+00  2.053708e+03 0.0 0.0 9.0
 2  1 1 2 103   0 -1.828067e+03 -9.358551e+02  3.679435e+03  4.213774e+03 0.0022 0.0 9.0
#pdf 2 21 7.657471e-01 1.984809e-01 5000.0 3.249281e-03 3.841286e-01
</event>
<event>
4 7 1.0 5000.0 7.905138e-03 7.739137e-02
21 -1 0 0 103 101  0.000000e+00  0.000000e+00  2.518896e+03  2.518896e+03 0.0 0.0 9.0
 2 -1 0 0 101   0  0.000000e+00  0.000000e+00 -2.619094e+03  2.619094e+03 0.0 0.0 9.0
 2  1 1 2 103   0 -2.476491e+03 -7.137882e+01 -7.278125e+02  2.582211e+03 0.0022 0.0 9.0
22  1 1 2   0   0  2.476491e+03  7.137882e+01  6.276149e+02  2.555779e+03 0.0 0.0 9.0
#pdf 21 2 3.875225e-01 4.029375e-01 5000.0 1.226059e-02 1.009917e-02
</event>
<event>
4 7 1.0 5000.0 7.905138e-03 7.739137e-02
 2 -1 0 0 101   0  0.000000e+00  0.000000e+00  2.896283e+03  2.896283e+03 0.0 0.0 9.0
21 -1 0 0 103 101  0.000000e+00  0.000000e+00 -2.044544e+03  2.044544e+03 0.0 0.0 9.0
22  1 1 2   0   0 -2.162071e+03  8.461477e+02  1.165686e+03  2.597949e+03 0.0 0.0 9.0
 2  1 1 2 103   0  2.162071e+03 -8.461477e+02 -3.139469e+02  2.342878e+03 0.0022 0.0 9.0
#pdf 2 21 4.455820e-01 3.145453e-01 5000.0 1.054638e-01 2.316555e-01
</event>
<event>
4 7 1.0 5000.0 7.905138e-03 7.739137e-02
 2 -1 0 0 101   0  0.000000e+00  0.000000e+00  2.048184e+03  2.048184e+03 0.0 0.0 9.0
21 -1 0 0 103 101  0.000000e+00  0.000000e+00 -2.322752e+03  2.322752e+03 0.0 0.0 9.0
 2  1 1 2 103   0  1.505858e+03  1.314507e+03 -1.011871e+03  2.240407e+03 0.0022 0.0 9.0
22  1 1 2   0   0 -1.505858e+03 -1.314507e+03  7.373030e+02  2.130529e+03 0.0 0.0 9.0
#pdf 2 21 3.151052e-01 3.573464e-01 5000.0 2.309937e-01 1.839063e-01
</event>
<event>
4 7 1.0 5000.0 7.905138e-03 7.739137e-02
21 -1 0 0 103 101  0.000000e+00  0.000000e+00  2.359465e+03  2.359465e+03 0.0 0.0 9.0
 2 -1 0 0 101   0  0.000000e+00  0.000000e+00 -2.652553e+03  2.652553e+03 0.0 0.0 9.0
 2  1 1 2 103   0  1.541656e+03 -1.890260e+03 -7.032141e+02  2.538562e+03 0.0022 0.0 9.0
22  1 1 2   0   0 -1.541656e+03  1.890260e+03  4.101260e+02  2.473457e+03 0.0 0.0 9.0
#pdf 21 2 3.629947e-01 4.080851e-01 5000.0 1.662706e-02 9.461809e-03
</event>
<event>
4 7 1.0 5000.0 7.905138e-03 7.739137e-02
 2 -1 0 0 101   0  0.000000e+00  0.000000e+00  3.253133e+03  3.253133e+03 0.0 0.0 9.0
21 -1 0 0 103 101  0.000000e+00  0.000000e+00 -1.935859e+03  1.935859e+03 0.0 0.0 9.0
22  1 1 2   0   0  1.363835e+03  1.610120e+03  2.062976e+03  2.951001e+03 0.0 0.0 9.0
 2  1 1 2 103   0 -1.363835e+03 -1.610120e+03 -7.457018e+02  2.237991e+03 0.0022 0.0 9.0
#pdf 2 21 5.004820e-01 2.978244e-01 5000.0 7.018700e-02 2.518665e-01
</event>
<event>
4 7 1.0 5000.0 7.905138e-03 7.739137e-02
 2 -1 0 0 101   0  0.000000e+00  0.000000e+00  4.005698e+03  4.005698e+03 0.0 0.0 9.0
21 -1 0 0 103 101  0.000000e+00  0.000000e+00 -1.583418e+03  1.583418e+03 0.0 0.0 9.0
 2  1 1 2 103   0  1.653110e+03  1.391179e+03  2.647040e+03  3.416866e+03 0.0022 0.0 9.0
22  1 1 2   0   0 -1.653110e+03 -1.391179e+03 -2.247601e+02  2.172249e+03 0.0 0.0 9.0
#pdf 2 21 6.162612e-01 2.436027e-01 5000.0 2.440352e-02 3.222157e-01
</event>
<event>
4 7 1.0 5000.0 7.905138e-03 7.739137e-02
21 -1 0 0 103 101  0.000000e+00  0.000000e+00  2.857247e+03  2.857247e+03 0.0 0.0 9.0
 2 -1 0 0 101   0  0.000000e+00  0.000000e+00 -2.226523e+03  2.226523e+03 0.0 0.0 9.0
22  1 1 2   0   0 -2.409728e+03  4.631772e+02  9.033471e+02  2.614834e+03 0.0 0.0 9.0
 2  1 1 2 103   0  2.409728e+03 -4.631772e+02 -2.726236e+02  2.468936e+03 0.0022 0.0 9.0
#pdf 21 2 4.395764e-01 3.425420e-01 5000.0 6.325257e-03 2.138736e-02
</event>
<event>
4 7 1.0 5000.0 7.905138e-03 7.739137e-02
21 -1 0 0 103 101  0.000000e+00  0.000000e+00  1.757369e+03  1.757369e+03 0.0 0.0 9.0
 2 -1 0 0 101   0  0.000000e+00  0.000000e+00 -3.482702e+03  3.482702e+03 0.0 0.0 9.0
22  1 1 2   0   0 -1.799055e+03 -2.080557e+01  9.356538e+02  2.027925e+03 0.0 0.0 9.0
 2  1 1 2 103   0  1.799055e+03  2.080557e+01 -2.660987e+03  3.212146e+03 0.0022 0.0 9.0
#pdf 21 2 2.703644e-01 5.358003e-01 5000.0 5.181272e-02 1.700877e-03
</event>
<event>
4 7 1.0 5000.0 7.905138e-03 7.739137e-02
21 -1 0 0 103 101  0.000000e+00  0.000000e+00  3.377326e+03  3.377326e+03 0.0 0.0 9.0
 2 -1 0 0 101   0  0.000000e+00  0.000000e+00 -1.858558e+03  1.858558e+03 0.0 0.0 9.0
22  1 1 2   0   0 -3.001989e+02 -1.988213e+03 -8.023692e+02  2.164926e+03 0.0 0.0 9.0
 2  1 1 2 103   0  3.001989e+02  1.988213e+03  2.321137e+03  3.070958e+03 0.0022 0.0 9.0
#pdf 21 2 5.195886e-01 2.859321e-01 5000.0 2.144079e-03 4.279661e-02
</event>
<event>
4 7 1.0 5000.0 7.905138e-03 7.739137e-02
21 -1 0 0 103 101  0.000000e+00  0.000000e+00  1.993126e+03  1.993126e+03 0.0 0.0 9.0
 2 -1 0 0 101   0  0.000000e+00  0.000000e+00 -3.153795e+03  3.153795e+03 0.0 0.0 9.0
 2  1 1 2 103   0  4.757220e+02  1.511343e+03 -2.574758e+03  3.023218e+03 0.0022 0.0 9.0
22  1 1 2   0   0 -4.757220e+02 -1.511343e+03  1.414089e+03  2.123703e+03 0.0 0.0 9.0
#pdf 21 2 3.066348e-01 4.851993e-01 5000.0 3.324337e-02 3.450112e-03
</event>
<event>
4 7 1.0 5000.0 7.905138e-03 7.739137e-02
 2 -1 0 0 101   0  0.000000e+00  0.000000e+00  1.725665e+03  1.725665e+03 0.0 0.0 9.0
21 -1 0 0 103 101  0.000000e+00  0.000000e+00 -3.556561e+03  3.556561e+03 0.0 0.0 9.0
22  1 1 2   0   0  5.205897e+02 -2.040626e+03 -2.306383e+03  3.123231e+03 0.0 0.0 9.0
 2  1 1 2 103   0 -5.205897e+02  2.040626e+03  4.754867e+02  2.158994e+03 0.0022 0.0 9.0
#pdf 2 21 2.654869e-01 5.471632e-01 5000.0 2.930888e-01 4.753196e-02
</event>
<event>
4 7 1.0 5000.0 7.905138e-03 7.739137e-02
 2 -1 0 0 101   0  0.000000e+00  0.000000e+00  4.435220e+03  4.435220e+03 0.0 0.0 9.0
21 -1 0 0 103 101  0.000000e+00  0.000000e+00 -1.475304e+03  1.475304e+03 0.0 0.0 9.0
 2  1 1 2 103   0  4.918744e+02  8.410122e+02 -1.252548e+03  1.586858e+03 0.0022 0.0 9.0
22  1 1 2   0   0 -4.918744e+02 -8.410122e+02  4.212464e+03  4.323667e+03 0.0 0.0 9.0
#pdf 2 21 6.823416e-01 2.269699e-01 5000.0 1.130872e-02 3.448773e-01
</event>
<event>
4 7 1.0 5000.0 7.905138e-03 7.739137e-02
 2 -1 0 0 101   0  0.000000e+00  0.000000e+00  3.563434e+03  3.563434e+03 0.0 0.0 9.0
21 -1 0 0 103 101  0.000000e+00  0.000000e+00 -1.800266e+03  1.800266e+03 0.0 0.0 9.0
22  1 1 2   0   0  1.132919e+03  1.774703e+03 -6.091123e+02  2.191825e+03 0.0 0.0 9.0
 2  1 1 2 103   0 -1.132919e+03 -1.774703e+03  2.372280e+03  3.171875e+03 0.0022 0.0 9.0
#pdf 2 21 5.482206e-01 2.769640e-01 5000.0 4.708729e-02 2.781665e-01
</event>
<event>
4 7 1.0 5000.0 7.905138e-03 7.739137e-02
 2 -1 0 0 101   0  0.000000e+00  0.000000e+00  4.651922e+03  4.651922e+03 0.0 0.0 9.0
21 -1 0 0 103 101  0.000000e+00  0.000000e+00 -1.345316e+03  1.345316e+03 0.0 0.0 9.0
 2  1 1 2 103   0 -2.310103e+02  2.490305e+03  1.584231e+03  2.960536e+03 0.0022 0.0 9.0
22  1 1 2   0   0  2.310103e+02 -2.490305e+03  1.722375e+03  3.036702e+03 0.0 0.0 9.0
#pdf 2 21 7.156803e-01 2.069717e-01 5000.0 7.187198e-03 3.724220e-01
</event>
<event>
4 7 1.0 5000.0 7.905138e-03 7.739137e-02
 2 -1 0 0 101   0  0.000000e+00  0.000000e+00  1.238004e+03  1.238004e+03 0.0 0.0 9.0
21 -1 0 0 103 101  0.000000e+00  0.000000e+00 -4.790334e+03  4.790334e+03 0.0 0.0 9.0
22  1 1 2   0   0 -1.720369e+03  2.331750e+02  3.375594e+02  1.768611e+03 0.0 0.0 9.0
 2  1 1 2 103   0  1.720369e+03 -2.331750e+02 -3.889889e+03  4.259727e+03 0.0022 0.0 9.0
#pdf 2 21 1.904622e-01 7.369744e-01 5000.0 3.951801e-01 5.224713e-03
</event>
<event>
4 7 1.0 5000.0 7.905138e-03 7.739137e-02
 2 -1 0 0 101   0  0.000000e+00  0.000000e+00  3.240135e+03  3.240135e+03 0.0 0.0 9.0
21 -1 0 0 103 101  0.000000e+00  0.000000e+00 -1.886603e+03  1.886603e+03 0.0 0.0 9.0
22  1 1 2   0   0  2.226121e+03 -1.807889e+02 -4.226936e+02  2.273096e+03 0.0 0.0 9.0
 2  1 1 2 103   0 -2.226121e+03  1.807889e+02  1.776225e+03  2.853642e+03 0.0022 0.0 9.0
#pdf 2 21 4.984823e-01 2.902467e-01 5000.0 7.130127e-02 2.612880e-01
</event>
<event>
4 7 1.0 5000.0 7.905138e-03 7.739137e-02
 2 -1 0 0 101   0  0.000000e+00  0.000000e+00  1.520146e+03  1.520146e+03 0.0 0.0 9.0
21 -1 0 0 103 101  0.000000e+00  0.000000e+00 -3.914800e+03  3.914800e+03 0.0 0.0 9.0
 2  1 1 2 103   0  1.921448e+03  1.261873e+03 -2.106946e+03  3.118254e+03 0.0022 0.0 9.0
22  1 1 2   0   0 -1.921448e+03 -1.261873e+03 -2.877079e+02  2.316692e+03 0.0 0.0 9.0
#pdf 2 21 2.338686e-01 6.022769e-01 5000.0 3.354261e-01 2.820591e-02
</event>
<event>
4 7 1.0 5000.0 7.905138e-03 7.739137e-02
21 -1 0 0 103 101  0.000000e+00  0.000000e+00  1.548181e+03  1.548181e+03 0.0 0.0 9.0
 2 -1 0 0 101   0  0.000000e+00  0.000000e+00 -3.450251e+03  3.450251e+03 0.0 0.0 9.0
22  1 1 2   0   0  1.348202e+03  5.115123e+02 -2.904164e+03  3.242447e+03 0.0 0.0 9.0
 2  1 1 2 103   0 -1.348202e+03 -5.115123e+02  1.002094e+03  1.755986e+03 0.0022 0.0 9.0
#pdf 21 2 2.381818e-01 5.308079e-01 5000.0 7.735358e-02 1.828793e-03
</event>
<event>
4 7 1.0 5000.0 7.905138e-03 7.739137e-02
 2 -1 0 0 101   0  0.000000e+00  0.000000e+00  3.738713e+03  3.738713e+03 0.0 0.0 9.0
21 -1 0 0 103 101  0.000000e+00  0.000000e+00 -1.696978e+03  1.696978e+03 0.0 0.0 9.0
 2  1 1 2 103   0 -2.207334e+03 -4.360938e+02 -2.008533e+02  2.258947e+03 0.0022 0.0 9.0
22  1 1 2   0   0  2.207334e+03  4.360938e+02  2.242589e+03  3.176744e+03 0.0 0.0 9.0
#pdf 2 21 5.751866e-01 2.610735e-01 5000.0 3.678441e-02 2.988890e-01
</event>
<event>
4 7 1.0 5000.0 7.905138e-03 7.739137e-02
21 -1 0 0 103 101  0.000000e+00  0.000000e+00  1.662576e+03  1.662576e+03 0.0 0.0 9.0
 2 -1 0 0 101   0  0.000000e+00  0.000000e+00 -3.786519e+03  3.786519e+03 0.0 0.0 9.0
22  1 1 2   0   0 -1.278257e+03 -1.325174e+03  7.889266e+02  2.003106e+03 0.0 0.0 9.0
 2  1 1 2 103   0  1.278257e+03  1.325174e+03 -2.912870e+03  3.445989e+03 0.0022 0.0 9.0
#pdf 21 2 2.557809e-01 5.825413e-01 5000.0 6.210757e-02 8.449783e-04
</event>
<event>
4 7 1.0 5000.0 7.905138e-03 7.739137e-02
 2 -1 0 0 101   0  0.000000e+00  0.000000e+00  1.786492e+03  1.786492e+03 0.0 0.0 9.0
21 -1 0 0 103 101  0.000000e+00  0.000000e+00 -3.476070e+03  3.476070e+03 0.0 0.0 9.0
 2  1 1 2 103   0  5.043960e+02 -1.574139e+03  1.124298e+03  1.999093e+03 0.0022 0.0 9.0
22  1 1 2   0   0 -5.043960e+02  1.574139e+03 -2.813877e+03  3.263469e+03 0.0 0.0 9.0
#pdf 2 21 2.748449e-01 5.347801e-01 5000.0 2.808990e-01 5.293761e-02
</event>
<event>
4 7 1.0 5000.0 7.905138e-03 7.739137e-02
 2 -1 0 0 101   0  0.000000e+00  0.000000e+00  3.322058e+03  3.322058e+03 0.0 0.0 9.0
21 -1 0 0 103 101  0.000000e+00  0.000000e+00 -1.767544e+03  1.767544e+03 0.0 0.0 9.0
 2  1 1 2 103   0 -5.445382e+02 -1.836056e+03 -7.819232e+02  2.068581e+03 0.0022 0.0 9.0
22  1 1 2   0   0  5.445382e+02  1.836056e+03  2.336438e+03  3.021020e+03 0.0 0.0 9.0
#pdf 2 21 5.110858e-01 2.719298e-01 5000.0 6.448198e-02 2.846764e-01
</event>
<event>
4 7 1.0 5000.0 7.905138e-03 7.739137e-02
 2 -1 0 0 101   0  0.000000e+00  0.000000e+00  2.005971e+03  2.005971e+03 0.0 0.0 9.0
21 -1 0 0 103 101  0.000000e+00  0.000000e+00 -3.110162e+03  3.110162e+03 0.0 0.0 9.0
 2  1 1 2 103   0 -1.909253e+03 -1.592822e+03 -7.956712e+02  2.610636e+03 0.0022 0.0 9.0
22  1 1 2   0   0  1.909253e+03  1.592822e+03 -3.085201e+02  2.505497e+03 0.0 0.0 9.0
#pdf 2 21 3.086109e-01 4.784865e-01 5000.0 2.387303e-01 8.313834e-02
</event>
<event>
4 7 1.0 5000.0 7.905138e-03 7.739137e-02
21 -1 0 0 103 101  0.000000e+00  0.000000e+00  2.856635e+03  2.856635e+03 0.0 0.0 9.0
 2 -1 0 0 101   0  0.000000e+00  0.000000e+00 -2.172095e+03  2.172095e+03 0.0 0.0 9.0
22  1 1 2   0   0  7.764485e+02 -1.660190e+01  2.731307e+03  2.839575e+03 0.0 0.0 9.0
 2  1 1 2 103   0 -7.764485e+02  1.660190e+01 -2.046766e+03  2.189155e+03 0.0022 0.0 9.0
#pdf 21 2 4.394823e-01 3.341684e-01 5000.0 6.332977e-03 2.370273e-02
</event>
<event>
4 7 1.0 5000.0 7.905138e-03 7.739137e-02
21 -1 0 0 103 101  0.000000e+00  0.000000e+00  2.819605e+03  2.819605e+03 0.0 0.0 9.0
 2 -1 0 0 101   0  0.000000e+00  0.000000e+00 -2.250376e+03  2.250376e+03 0.0 0.0 9.0
 2  1 1 2 103   0 -7.601154e+02  2.029456e+03  1.576804e+03  2.680070e+03 0.0022 0.0 9.0
22  1 1 2   0   0  7.601154e+02 -2.029456e+03 -1.007574e+03  2.389911e+03 0.0 0.0 9.0
#pdf 21 2 4.337854e-01 3.462117e-01 5000.0 6.813483e-03 2.044896e-02
</event>
<event>
4 7 1.0 5000.0 7.905138e-03 7.739137e-02
21 -1 0 0 103 101  0.000000e+00  0.000000e+00  2.154268e+03  2.154268e+03 0.0 0.0 9.0
 2 -1 0 0 101   0  0.000000e+00  0.000000e+00 -2.916612e+03  2.916612e+03 0.0 0.0 9.0
 2  1 1 2 103   0 -1.772806e+03  9.629208e+02 -1.885925e+03  2.761661e+03 0.0022 0.0 9.0
22  1 1 2   0   0  1.772806e+03 -9.629208e+02  1.123581e+03  2.309219e+03 0.0 0.0 9.0
#pdf 21 2 3.314259e-01 4.487095e-01 5000.0 2.451426e-02 5.609195e-03
</event>
<event>
4 7 1.0 5000.0 7.905138e-03 7.739137e-02
 2 -1 0 0 101   0  0.000000e+00  0.000000e+00  3.682011e+03  3.682011e+03 0.0 0.0 9.0
21 -1 0 0 103 101  0.000000e+00  0.000000e+00 -1.687328e+03  1.687328e+03 0.0 0.0 9.0
 2  1 1 2 103   0 -2.270759e+03 -6.499447e+02  1.397350e+02  2.366073e+03 0.0022 0.0 9.0
22  1 1 2   0   0  2.270759e+03  6.499447e+02  1.854948e+03  3.003266e+03 0.0 0.0 9.0
#pdf 2 21 5.664632e-01 2.595889e-01 5000.0 3.992415e-02 3.008456e-01
</event>
<event>
4 7 1.0 5000.0 7.905138e-03 7.739137e-02
21 -1 0 0 103 101  0.000000e+00  0.000000e+00  3.431958e+03  3.431958e+03 0.0 0.0 9.0
 2 -1 0 0 101   0  0.000000e+00  0.000000e+00 -1.861356e+03  1.861356e+03 0.0 0.0 9.0
22  1 1 2   0   0  7.843584e+02  1.726373e+03 -9.645834e+02  2.127441e+03 0.0 0.0 9.0
 2  1 1 2 103   0 -7.843584e+02 -1.726373e+03  2.535185e+03  3.165872e+03 0.0022 0.0 9.0
#pdf 21 2 5.279935e-01 2.863624e-01 5000.0 1.903754e-03 4.257366e-02
</event>
<event>
4 7 1.0 5000.0 7.905138e-03 7.739137e-02
 2 -1 0 0 101   0  0.000000e+00  0.000000e+00  2.640064e+03  2.640064e+03 0.0 0.0 9.0
21 -1 0 0 103 101  0.000000e+00  0.000000e+00 -2.382337e+03  2.382337e+03 0.0 0.0 9.0
22  1 1 2   0   0 -1.839780e+03  1.404087e+03  1.096197e+03  2.560840e+03 0.0 0.0 9.0
 2  1 1 2 103   0  1.839780e+03 -1.404087e+03 -8.384703e+02  2.461561e+03 0.0022 0.0 9.0
#pdf 2 21 4.061637e-01 3.665134e-01 5000.0 1.371266e-01 1.744791e-01
</event>
<event>
4 7 1.0 5000.0 7.905138e-03 7.739137e-02
21 -1 0 0 103 101  0.000000e+00  0.000000e+00  3.684261e+03  3.684261e+03 0.0 0.0 9.0
 2 -1 0 0 101   0  0.000000e+00  0.000000e+00 -1.856123e+03  1.856123e+03 0.0 0.0 9.0
22  1 1 2   0   0  1.646504e+03 -1.355588e+03  2.517073e+03  3.299128e+03 0.0 0.0 9.0
 2  1 1 2 103   0 -1.646504e+03  1.355588e+03 -6.889344e+02  2.241255e+03 0.0022 0.0 9.0
#pdf 21 2 5.668093e-01 2.855573e-01 5000.0 1.076360e-03 4.299189e-02
</event>
<event>
4 7 1.0 5000.0 7.905138e-03 7.739137e-02
 2 -1 0 0 101   0  0.000000e+00  0.000000e+00  2.721359e+03  2.721359e+03 0.0 0.0 9.0
21 -1 0 0 103 101  0.000000e+00  0.000000e+00 -2.347692e+03  2.347692e+03 0.0 0.0 9.0
 2  1 1 2 103   0  7.811031e+02 -1.453107e+03 -1.733403e+03  2.392975e+03 0.0022 0.0 9.0
22  1 1 2   0   0 -7.811031e+02  1.453107e+03  2.107070e+03  2.676077e+03 0.0 0.0 9.0
#pdf 2 21 4.186707e-01 3.611834e-01 5000.0 1.264884e-01 1.799264e-01
</event>
<event>
4 7 1.0 5000.0 7.905138e-03 7.739137e-02
 2 -1 0 0 101   0  0.000000e+00  0.000000e+00  2.659915e+03  2.659915e+03 0.0 0.0 9.0
21 -1 0 0 103 101  0.000000e+00  0.000000e+00 -2.382042e+03  2.382042e+03 0.0 0.0 9.0
22  1 1 2   0   0  6.119909e+02 -2.303960e+03 -6.705422e+02  2.476366e+03 0.0 0.0 9.0
 2  1 1 2 103   0 -6.119909e+02  2.303960e+03  9.484148e+02  2.565590e+03 0.0022 0.0 9.0
#pdf 2 21 4.092176e-01 3.664680e-01 5000.0 1.344791e-01 1.745251e-01
</event>
<event>
4 7 1.0 5000.0 7.905138e-03 7.739137e-02
21 -1 0 0 103 101  0.000000e+00  0.000000e+00  2.642406e+03  2.642406e+03 0.0 0.0 9.0
 2 -1 0 0 101   0  0.000000e+00  0.000000e+00 -2.347997e+03  2.347997e+03 0.0 0.0 9.0
22  1 1 2   0   0  1.314938e+03 -1.425087e+03  1.713399e+03  2.587599e+03 0.0 0.0 9.0
 2  1 1 2 103   0 -1.314938e+03  1.425087e+03 -1.418989e+03  2.402804e+03 0.0022 0.0 9.0
#pdf 21 2 4.065240e-01 3.612303e-01 5000.0 9.651342e-03 1.699068e-02
</event>
<event>
4 7 1.0 5000.0 7.905138e-03 7.739137e-02
 2 -1 0 0 101   0  0.000000e+00  0.000000e+00  2.995601e+03  2.995601e+03 0.0 0.0 9.0
21 -1 0 0 103 101  0.000000e+00  0.000000e+00 -2.002408e+03  2.002408e+03 0.0 0.0 9.0
 2  1 1 2 103   0  2.272875e+03 -8.379025e+02  8.650148e+02  2.572216e+03 0.0022 0.0 9.0
22  1 1 2   0   0 -2.272875e+03  8.379025e+02  1.281789e+02  2.425793e+03 0.0 0.0 9.0
#pdf 2 21 4.608617e-01 3.080627e-01 5000.0 9.464398e-02 2.393897e-01
</event>
<event>
4 7 1.0 5000.0 7.905138e-03 7.739137e-02
 2 -1 0 0 101   0  0.000000e+00  0.000000e+00  1.671074e+03  1.671074e+03 0.0 0.0 9.0
21 -1 0 0 103 101  0.000000e+00  0.000000e+00 -2.625516e+03  2.625516e+03 0.0 0.0 9.0
 2  1 1 2 103   0  1.433281e+03 -6.088364e+02 -1.913996e+03  2.467459e+03 0.0022 0.0 9.0
22  1 1 2   0   0 -1.433281e+03  6.088364e+02  9.595531e+02  1.829130e+03 0.0 0.0 9.0
#pdf 2 21 2.570883e-01 4.039255e-01 5000.0 3.041495e-01 1.390894e-01
</event>
<event>
4 7 1.0 5000.0 7.905138e-03 7.739137e-02
 2 -1 0 0 101   0  0.000000e+00  0.000000e+00  2.563930e+03  2.563930e+03 0.0 0.0 9.0
21 -1 0 0 103 101  0.000000e+00  0.000000e+00 -2.447574e+03  2.447574e+03 0.0 0.0 9.0
22  1 1 2   0   0  2.190675e+03 -5.652600e+02  1.134030e+03  2.530731e+03 0.0 0.0 9.0
 2  1 1 2 103   0 -2.190675e+03  5.652600e+02 -1.017675e+03  2.480773e+03 0.0022 0.0 9.0
#pdf 2 21 3.944508e-01 3.765499e-01 5000.0 1.475970e-01 1.645071e-01
</event>
<event>
4 7 1.0 5000.0 7.905138e-03 7.739137e-02
21 -1 0 0 103 101  0.000000e+00  0.000000e+00  4.408918e+03  4.408918e+03 0.0 0.0 9.0
 2 -1 0 0 101   0  0.000000e+00  0.000000e+00 -1.446432e+03  1.446432e+03 0.0 0.0 9.0
22  1 1 2   0   0  9.104700e+02  1.364788e+03  3.706919e+03  4.053745e+03 0.0 0.0 9.0
 2  1 1 2 103   0 -9.104700e+02 -1.364788e+03 -7.444324e+02  1.801605e+03 0.0022 0.0 9.0
#pdf 21 2 6.782951e-01 2.225280e-01 5000.0 1.649674e-04 9.417705e-02
</event>
<event>
4 7 1.0 5000.0 7.905138e-03 7.739137e-02
 2 -1 0 0 101   0  0.000000e+00  0.000000e+00  1.390460e+03  1.390460e+03 0.0 0.0 9.0
21 -1 0 0 103 101  0.000000e+00  0.000000e+00 -4.535845e+03  4.535845e+03 0.0 0.0 9.0
 2  1 1 2 103   0 -1.647726e+03  1.100528e+03 -3.393242e+03  3.929409e+03 0.0022 0.0 9.0
22  1 1 2   0   0  1.647726e+03 -1.100528e+03  2.478568e+02  1.996897e+03 0.0 0.0 9.0
#pdf 2 21 2.139169e-01 6.978223e-01 5000.0 3.627782e-01 9.220158e-03
</event>
<event>
4 7 1.0 5000.0 7.905138e-03 7.739137e-02
 2 -1 0 0 101   0  0.000000e+00  0.000000e+00  2.901360e+03  2.901360e+03 0.0 0.0 9.0
21 -1 0 0 103 101  0.000000e+00  0.000000e+00 -2.195321e+03  2.195321e+03 0.0 0.0 9.0
22  1 1 2   0   0  9.212283e+02  1.849377e+03 -1.110422e+03  2.345611e+03 0.0 0.0 9.0
 2  1 1 2 103   0 -9.212283e+02 -1.849377e+03  1.816461e+03  2.751070e+03 0.0022 0.0 9.0
#pdf 2 21 4.463631e-01 3.377417e-01 5000.0 1.048892e-01 2.050321e-01
</event>
<event>
4 7 1.0 5000.0 7.905138e-03 7.739137e-02
21 -1 0 0 103 101  0.000000e+00  0.000000e+00  2.511179e+03  2.511179e+03 0.0 0.0 9.0
 2 -1 0 0 101   0  0.000000e+00  0.000000e+00 -3.057906e+03  3.057906e+03 0.0 0.0 9.0
 2  1 1 2 103   0  2.130063e+03  4.156856e+02  1.458076e+03  2.614564e+03 0.0022 0.0 9.0
22  1 1 2   0   0 -2.130063e+03 -4.156856e+02 -2.004802e+03  2.954521e+03 0.0 0.0 9.0
#pdf 21 2 3.863353e-01 4.704470e-01 5000.0 1.244556e-02 4.209625e-03
</event>
<event>
4 7 1.0 5000.0 7.905138e-03 7.739137e-02
21 -1 0 0 103 101  0.000000e+00  0.000000e+00  2.629883e+03  2.629883e+03 0.0 0.0 9.0
 2 -1 0 0 101   0  0.000000e+00  0.000000e+00 -2.396313e+03  2.396313e+03 0.0 0.0 9.0
 2  1 1 2 103   0  9.525775e+02  2.943847e+02  2.423177e+03  2.620277e+03 0.0022 0.0 9.0
22  1 1 2   0   0 -9.525775e+02 -2.943847e+02 -2.189607e+03  2.405918e+03 0.0 0.0 9.0
#pdf 21 2 4.045974e-01 3.686635e-01 5000.0 9.889696e-03 1.549226e-02
</event>
<event>
4 7 1.0 5000.0 7.905138e-03 7.739137e-02
 2 -1 0 0 101   0  0.000000e+00  0.000000e+00  2.470133e+03  2.470133e+03 0.0 0.0 9.0
21 -1 0 0 103 101  0.000000e+00  0.000000e+00 -2.408204e+03  2.408204e+03 0.0 0.0 9.0
22  1 1 2   0   0 -1.180990e+03  1.966851e+03 -7.969572e+02  2.428658e+03 0.0 0.0 9.0
 2  1 1 2 103   0  1.180990e+03 -1.966851e+03  8.588868e+02  2.449679e+03 0.0022 0.0 9.0
#pdf 2 21 3.800205e-01 3.704929e-01 5000.0 1.611422e-01 1.704740e-01
</event>
<event>
4 7 1.0 5000.0 7.905138e-03 7.739137e-02
21 -1 0 0 103 101  0.000000e+00  0.000000e+00  2.039021e+03  2.039021e+03 0.0 0.0 9.0
 2 -1 0 0 101   0  0.000000e+00  0.000000e+00 -3.108164e+03  3.108164e+03 0.0 0.0 9.0
 2  1 1 2 103   0  1.244931e+03 -4.839656e+02 -2.716052e+03  3.026717e+03 0.0022 0.0 9.0
22  1 1 2   0   0 -1.244931e+03  4.839656e+02  1.646909e+03  2.120468e+03 0.0 0.0 9.0
#pdf 21 2 3.136955e-01 4.781791e-01 5000.0 3.046950e-02 3.794696e-03
</event>
<event>
4 7 1.0 5000.0 7.905138e-03 7.739137e-02
21 -1 0 0 103 101  0.000000e+00  0.000000e+00  2.467893e+03  2.467893e+03 0.0 0.0 9.0
 2 -1 0 0 101   0  0.000000e+00  0.000000e+00 -2.512715e+03  2.512715e+03 0.0 0.0 9.0
 2  1 1 2 103   0  1.233888e+03  2.247723e+02  2.128980e+03  2.470943e+03 0.0022 0.0 9.0
22  1 1 2   0   0 -1.233888e+03 -2.247723e+02 -2.173802e+03  2.509665e+03 0.0 0.0 9.0
#pdf 21 2 3.796758e-01 3.865716e-01 5000.0 1.353033e-02 1.240853e-02
</event>
<event>
4 7 1.0 5000.0 7.905138e-03 7.739137e-02
 2 -1 0 0 101   0  0.000000e+00  0.000000e+00  4.844036e+03  4.844036e+03 0.0 0.0 9.0
21 -1 0 0 103 101  0.000000e+00  0.000000e+00 -1.289658e+03  1.289658e+03 0.0 0.0 9.0
22  1 1 2   0   0 -3.006994e+02 -2.436891e+03  2.350475e+03  3.399057e+03 0.0 0.0 9.0
 2  1 1 2 103   0  3.006994e+02  2.436891e+03  1.203904e+03  2.734637e+03 0.0022 0.0 9.0
#pdf 2 21 7.452364e-01 1.984089e-01 5000.0 4.584265e-03 3.842283e-01
</event>
<event>
4 7 1.0 5000.0 7.905138e-03 7.739137e-02
21 -1 0 0 103 101  0.000000e+00  0.000000e+00  3.280384e+03  3.280384e+03 0.0 0.0 9.0
 2 -1 0 0 101   0  0.000000e+00  0.000000e+00 -1.957866e+03  1.957866e+03 0.0 0.0 9.0
 2  1 1 2 103   0 -1.712005e+03 -2.536464e+02  2.574525e+03  3.102173e+03 0.0022 0.0 9.0
22  1 1 2   0   0  1.712005e+03  2.536464e+02 -1.252007e+03  2.136076e+03 0.0 0.0 9.0
#pdf 21 2 5.046744e-01 3.012101e-01 5000.0 2.641627e-03 3.549040e-02
</event>
<event>
4 7 1.0 5000.0 7.905138e-03 7.739137e-02
 2 -1 0 0 101   0  0.000000e+00  0.000000e+00  4.048641e+03  4.048641e+03 0.0 0.0 9.0
21 -1 0 0 103 101  0.000000e+00  0.000000e+00 -1.515141e+03  1.515141e+03 0.0 0.0 9.0
22  1 1 2   0   0  1.100263e+03 -6.815338e+02  3.638599e+03  3.861926e+03 0.0 0.0 9.0
 2  1 1 2 103   0 -1.100263e+03  6.815338e+02 -1.105100e+03  1.701856e+03 0.0022 0.0 9.0
#pdf 2 21 6.228678e-01 2.330986e-01 5000.0 2.274417e-02 3.364811e-01
</event>
<event>
4 7 1.0 5000.0 7.905138e-03 7.739137e-02
21 -1 0 0 103 101  0.000000e+00  0.000000e+00  1.423128e+03  1.423128e+03 0.0 0.0 9.0
 2 -1 0 0 101   0  0.000000e+00  0.000000e+00 -4.517290e+03  4.517290e+03 0.0 0.0 9.0
 2  1 1 2 103   0  1.239705e+03 -2.771134e+02 -4.117626e+03  4.309119e+03 0.0022 0.0 9.0
22  1 1 2   0   0 -1.239705e+03  2.771134e+02  1.023463e+03  1.631299e+03 0.0 0.0 9.0
#pdf 21 2 2.189427e-01 6.949678e-01 5000.0 9.860323e-02 1.196945e-04
</event>
<event>
4 7 1.0 5000.0 7.905138e-03 7.739137e-02
 2 -1 0 0 101   0  0.000000e+00  0.000000e+00  2.988434e+03  2.988434e+03 0.0 0.0 9.0
21 -1 0 0 103 101  0.000000e+00  0.000000e+00 -2.114099e+03  2.114099e+03 0.0 0.0 9.0
 2  1 1 2 103   0  2.155344e+02 -1.466647e+03  2.497502e+03  2.904312e+03 0.0022 0.0 9.0
22  1 1 2   0   0 -2.155344e+02  1.466647e+03 -1.623167e+03  2.198222e+03 0.0 0.0 9.0
#pdf 2 21 4.597591e-01 3.252460e-01 5000.0 9.539914e-02 2.191643e-01
</event>
<event>
4 7 1.0 5000.0 7.905138e-03 7.739137e-02
21 -1 0 0 103 101  0.000000e+00  0.000000e+00  4.479703e+03  4.479703e+03 0.0 0.0 9.0
 2 -1 0 0 101   0  0.000000e+00  0.000000e+00 -1.415346e+03  1.415346e+03 0.0 0.0 9.0
 2  1 1 2 103   0 -2.210684e+03 -8.057379e+02  2.581790e+03  3.493132e+03 0.0022 0.0 9.0
22  1 1 2   0   0  2.210684e+03  8.057379e+02  4.825671e+02  2.401917e+03 0.0 0.0 9.0
#pdf 21 2 6.891851e-01 2.177456e-01 5000.0 1.341020e-04 1.001267e-01
</event>
<event>
4 7 1.0 5000.0 7.905138e-03 7.739137e-02
21 -1 0 0 103 101  0.000000e+00  0.000000e+00  2.920628e+03  2.920628e+03 0.0 0.0 9.0
 2 -1 0 0 101   0  0.000000e+00  0.000000e+00 -2.004695e+03  2.004695e+03 0.0 0.0 9.0
22  1 1 2   0   0 -1.490279e+02 -1.532497e+03 -1.441776e+03  2.109378e+03 0.0 0.0 9.0
 2  1 1 2 103   0  1.490279e+02  1.532497e+03  2.357708e+03  2.815945e+03 0.0022 0.0 9.0
#pdf 21 2 4.493273e-01 3.084146e-01 5000.0 5.565106e-03 3.252542e-02
</event>
<event>
4 7 1.0 5000.0 7.905138e-03 7.739137e-02
21 -1 0 0 103 101  0.000000e+00  0.000000e+00  2.601457e+03  2.601457e+03 0.0 0.0 9.0
 2 -1 0 0 101   0  0.000000e+00  0.000000e+00 -2.499116e+03  2.499116e+03 0.0 0.0 9.0
 2  1 1 2 103   0  2.289178e+03  4.840368e+01 -1.070959e+03  2.527772e+03 0.0022 0.0 9.0
22  1 1 2   0   0 -2.289178e+03 -4.840368e+01  1.173299e+03  2.572801e+03 0.0 0.0 9.0
#pdf 21 2 4.002241e-01 3.844795e-01 5000.0 1.045029e-02 1.274003e-02
</event>
<event>
4 7 1.0 5000.0 7.905138e-03 7.739137e-02
 2 -1 0 0 101   0  0.000000e+00  0.000000e+00  2.040549e+03  2.040549e+03 0.0 0.0 9.0
21 -1 0 0 103 101  0.000000e+00  0.000000e+00 -3.136219e+03  3.136219e+03 0.0 0.0 9.0
 2  1 1 2 103   0  2.522414e+03 -9.169630e+01 -3.747167e+02  2.551744e+03 0.0022 0.0 9.0
22  1 1 2   0   0 -2.522414e+03  9.169630e+01 -7.209534e+02  2.625025e+03 0.0 0.0 9.0
#pdf 2 21 3.139307e-01 4.824953e-01 5000.0 2.323830e-01 8.066299e-02
</event>
<event>
4 7 1.0 5000.0 7.905138e-03 7.739137e-02
21 -1 0 0 103 101  0.000000e+00  0.000000e+00  3.363272e+03  3.363272e+03 0.0 0.0 9.0
 2 -1 0 0 101   0  0.000000e+00  0.000000e+00 -1.875237e+03  1.875237e+03 0.0 0.0 9.0
 2  1 1 2 103   0 -1.169094e+03 -1.827080e+03 -5.760331e+02  2.244285e+03 0.0022 0.0 9.0
22  1 1 2   0   0  1.169094e+03  1.827080e+03  2.064067e+03  2.994224e+03 0.0 0.0 9.0
#pdf 21 2 5.174264e-01 2.884981e-01 5000.0 2.210776e-03 4.148646e-02
</event>
<event>
4 7 1.0 5000.0 7.905138e-03 7.739137e-02
21 -1 0 0 103 101  0.000000e+00  0.000000e+00  2.138427e+03  2.138427e+03 0.0 0.0 9.0
 2 -1 0 0 101   0  0.000000e+00  0.000000e+00 -2.815886e+03  2.815886e+03 0.0 0.0 9.0
22  1 1 2   0   0  1.970272e+03  1.411172e+03  4.987003e+01  2.424019e+03 0.0 0.0 9.0
 2  1 1 2 103   0 -1.970272e+03 -1.411172e+03 -7.273289e+02  2.530294e+03 0.0022 0.0 9.0
#pdf 21 2 3.289887e-01 4.332132e-01 5000.0 2.525698e-02 6.863430e-03
</event>
<event>
4 7 1.0 5000.0 7.905138e-03 7.739137e-02
21 -1 0 0 103 101  0.000000e+00  0.000000e+00  2.384128e+03  2.384128e+03 0.0 0.0 9.0
 2 -1 0 0 101   0  0.000000e+00  0.000000e+00 -2.198532e+03  2.198532e+03 0.0 0.0 9.0
 2  1 1 2 103   0 -1.216125e+03  1.148269e+03 -1.471848e+03  2.227963e+03 0.0022 0.0 9.0
22  1 1 2   0   0  1.216125e+03 -1.148269e+03  1.657444e+03  2.354698e+03 0.0 0.0 9.0
#pdf 21 2 3.667889e-01 3.382357e-01 5000.0 1.586259e-02 2.254539e-02
</event>
<event>
4 7 1.0 5000.0 7.905138e-03 7.739137e-02
21 -1 0 0 103 101  0.000000e+00  0.000000e+00  3.804702e+03  3.804702e+03 0.0 0.0 9.0
 2 -1 0 0 101   0  0.000000e+00  0.000000e+00 -1.706271e+03  1.706271e+03 0.0 0.0 9.0
22  1 1 2   0   0  3.557299e+02 -1.927502e+03  2.809734e+03  3.425844e+03 0.0 0.0 9.0
 2  1 1 2 103   0 -3.557299e+02  1.927502e+03 -7.113033e+02  2.085128e+03 0.0022 0.0 9.0
#pdf 21 2 5.853387e-01 2.625033e-01 5000.0 8.090974e-04 5.709522e-02
</event>
<event>
4 7 1.0 5000.0 7.905138e-03 7.739137e-02
 2 -1 0 0 101   0  0.000000e+00  0.000000e+00  1.841266e+03  1.841266e+03 0.0 0.0 9.0
21 -1 0 0 103 101  0.000000e+00  0.000000e+00 -3.509510e+03  3.509510e+03 0.0 0.0 9.0
22  1 1 2   0   0 -1.040742e+03  1.496385e+03  1.030731e+03  2.093972e+03 0.0 0.0 9.0
 2  1 1 2 103   0  1.040742e+03 -1.496385e+03 -2.698975e+03  3.256805e+03 0.0022 0.0 9.0
#pdf 2 21 2.832717e-01 5.399246e-01 5000.0 2.701057e-01 5.063597e-02
</event>
<event>
4 7 1.0 5000.0 7.905138e-03 7.739137e-02
21 -1 0 0 103 101  0.000000e+00  0.000000e+00  1.630114e+03  1.630114e+03 0.0 0.0 9.0
 2 -1 0 0 101   0  0.000000e+00  0.000000e+00 -2.775990e+03  2.775990e+03 0.0 0.0 9.0
 2  1 1 2 103   0  1.900856e+03 -4.052408e+02  3.225769e+02  1.970160e+03 0.0022 0.0 9.0
22  1 1 2   0   0 -1.900856e+03  4.052408e+02 -1.468453e+03  2.435944e+03 0.0 0.0 9.0
#pdf 21 2 2.507868e-01 4.270754e-01 5000.0 6.609255e-02 7.424926e-03
</event>
<event>
4 7 1.0 5000.0 7.905138e-03 7.739137e-02
 2 -1 0 0 101   0  0.000000e+00  0.000000e+00  2.727455e+03  2.727455e+03 0.0 0.0 9.0
21 -1 0 0 103 101  0.000000e+00  0.000000e+00 -2.383120e+03  2.383120e+03 0.0 0.0 9.0
 2  1 1 2 103   0  2.346510e+03 -1.156867e+02 -8.202195e+02  2.488423e+03 0.0022 0.0 9.0
22  1 1 2   0   0 -2.346510e+03  1.156867e+02  1.164554e+03  2.622151e+03 0.0 0.0 9.0
#pdf 2 21 4.196084e-01 3.666339e-01 5000.0 1.257127e-01 1.743571e-01
</event>
<event>
4 7 1.0 5000.0 7.905138e-03 7.739137e-02
 2 -1 0 0 101   0  0.000000e+00  0.000000e+00  4.394677e+03  4.394677e+03 0.0 0.0 9.0
21 -1 0 0 103 101  0.000000e+00  0.000000e+00 -1.441672e+03  1.441672e+03 0.0 0.0 9.0
 2  1 1 2 103   0 -1.097887e+03 -1.346169e+03  3.588352e+03  3.986702e+03 0.0022 0.0 9.0
22  1 1 2   0   0  1.097887e+03  1.346169e+03 -6.353465e+02  1.849647e+03 0.0 0.0 9.0
#pdf 2 21 6.761042e-01 2.217957e-01 5000.0 1.224030e-02 3.519527e-01
</event>
<event>
4 7 1.0 5000.0 7.905138e-03 7.739137e-02
 2 -1 0 0 101   0  0.000000e+00  0.000000e+00  3.493648e+03  3.493648e+03 0.0 0.0 9.0
21 -1 0 0 103 101  0.000000e+00  0.000000e+00 -1.799285e+03  1.799285e+03 0.0 0.0 9.0
 2  1 1 2 103   0  2.104690e+03 -2.915367e+02 -5.576667e+02  2.196749e+03 0.0022 0.0 9.0
22  1 1 2   0   0 -2.104690e+03  2.915367e+02  2.252030e+03  3.096183e+03 0.0 0.0 9.0
#pdf 2 21 5.374843e-01 2.768130e-01 5000.0 5.171583e-02 2.783607e-01
</event>
<event>
4 7 1.0 5000.0 7.905138e-03 7.739137e-02
 2 -1 0 0 101   0  0.000000e+00  0.000000e+00  2.865476e+03  2.865476e+03 0.0 0.0 9.0
21 -1 0 0 103 101  0.000000e+00  0.000000e+00 -2.219315e+03  2.219315e+03 0.0 0.0 9.0
22  1 1 2   0   0  5.133403e+02  7.882409e+02 -2.035819e+03  2.242633e+03 0.0 0.0 9.0
 2  1 1 2 103   0 -5.133403e+02 -7.882409e+02  2.681980e+03  2.842158e+03 0.0022 0.0 9.0
#pdf 2 21 4.408424e-01 3.414330e-01 5000.0 1.090010e-01 2.009570e-01
</event>
<event>
4 7 1.0 5000.0 7.905138e-03 7.739137e-02
21 -1 0 0 103 101  0.000000e+00  0.000000e+00  2.001106e+03  2.001106e+03 0.0 0.0 9.0
 2 -1 0 0 101   0  0.000000e+00  0.000000e+00 -3.149029e+03  3.149029e+03 0.0 0.0 9.0
22  1 1 2   0   0  2.249677e+03  6.078240e+02 -1.531344e+03  2.788460e+03 0.0 0.0 9.0
 2  1 1 2 103   0 -2.249677e+03 -6.078240e+02  3.834209e+02  2.361675e+03 0.0022 0.0 9.0
#pdf 21 2 3.078624e-01 4.844660e-01 5000.0 3.274696e-02 3.484607e-03
</event>
<event>
4 7 1.0 5000.0 7.905138e-03 7.739137e-02
 2 -1 0 0 101   0  0.000000e+00  0.000000e+00  2.319035e+03  2.319035e+03 0.0 0.0 9.0
21 -1 0 0 103 101  0.000000e+00  0.000000e+00 -2.723085e+03  2.723085e+03 0.0 0.0 9.0
22  1 1 2   0   0  7.509506e+02  2.127876e+03  9.075031e+02  2.432148e+03 0.0 0.0 9.0
 2  1 1 2 103   0 -7.509506e+02 -2.127876e+03 -1.311553e+03  2.609972e+03 0.0022 0.0 9.0
#pdf 2 21 3.567747e-01 4.189362e-01 5000.0 1.845036e-01 1.262685e-01
</event>
<event>
4 7 1.0 5000.0 7.905138e-03 7.739137e-02
21 -1 0 0 103 101  0.000000e+00  0.000000e+00  1.524567e+03  1.524567e+03 0.0 0.0 9.0
 2 -1 0 0 101   0  0.000000e+00  0.000000e+00 -3.887429e+03  3.887429e+03 0.0 0.0 9.0
 2  1 1 2 103   0  1.338269e+03 -2.025418e+03 -9.783968e+02  2.617354e+03 0.0022 0.0 9.0
22  1 1 2   0   0 -1.338269e+03  2.025418e+03 -1.384464e+03  2.794642e+03 0.0 0.0 9.0
#pdf 21 2 2.345488e-01 5.980659e-01 5000.0 8.092264e-02 6.618974e-04
</event>
<event>
4 7 1.0 5000.0 7.905138e-03 7.739137e-02
21 -1 0 0 103 101  0.000000e+00  0.000000e+00  3.630626e+03  3.630626e+03 0.0 0.0 9.0
 2 -1 0 0 101   0  0.000000e+00  0.000000e+00 -1.703218e+03  1.703218e+03 0.0 0.0 9.0
22  1 1 2   0   0  1.407599e+03 -1.106302e+03 -8.871993e+02  1.998090e+03 0.0 0.0 9.0
 2  1 1 2 103   0 -1.407599e+03  1.106302e+03  2.814608e+03  3.335754e+03 0.0022 0.0 9.0
#pdf 21 2 5.585579e-01 2.620335e-01 5000.0 1.219150e-03 5.743015e-02
</event>
<event>
4 7 1.0 5000.0 7.905138e-03 7.739137e-02
 2 -1 0 0 101   0  0.000000e+00  0.000000e+00  2.365572e+03  2.365572e+03 0.0 0.0 9.0
21 -1 0 0 103 101  0.000000e+00  0.000000e+00 -2.676359e+03  2.676359e+03 0.0 0.0 9.0
 2  1 1 2 103   0 -1.868506e+03  8.699703e+02  1.290601e+03  2.431834e+03 0.0022 0.0 9.0
22  1 1 2   0   0  1.868506e+03 -8.699703e+02 -1.601388e+03  2.610097e+03 0.0 0.0 9.0
#pdf 2 21 3.639342e-01 4.117475e-01 5000.0 1.771034e-01 1.323108e-01
</event>
<event>
4 7 1.0 5000.0 7.905138e-03 7.739137e-02
21 -1 0 0 103 101  0.000000e+00  0.000000e+00  1.248580e+03  1.248580e+03 0.0 0.0 9.0
 2 -1 0 0 101   0  0.000000e+00  0.000000e+00 -5.127287e+03  5.127287e+03 0.0 0.0 9.0
 2  1 1 2 103   0 -9.217008e+02  4.284097e+02  9.800509e+02  1.411937e+03 0.0022 0.0 9.0
22  1 1 2   0   0  9.217008e+02 -4.284097e+02 -4.858758e+03  4.963929e+03 0.0 0.0 9.0
#pdf 21 2 1.920892e-01 7.888133e-01 5000.0 1.395109e-01 1.392796e-05
</event>
<event>
4 7 1.0 5000.0 7.905138e-03 7.739137e-02
21 -1 0 0 103 101  0.000000e+00  0.000000e+00  3.100042e+03  3.100042e+03 0.0 0.0 9.0
 2 -1 0 0 101   0  0.000000e+00  0.000000e+00 -1.979077e+03  1.979077e+03 0.0 0.0 9.0
22  1 1 2   0   0 -1.426374e+02  5.746909e+02 -1.905444e+03  1.995328e+03 0.0 0.0 9.0
 2  1 1 2 103   0  1.426374e+02 -5.746909e+02  3.026410e+03  3.083792e+03 0.0022 0.0 9.0
#pdf 21 2 4.769296e-01 3.044734e-01 5000.0 3.859212e-03 3.412922e-02
</event>
<event>
4 7 1.0 5000.0 7.905138e-03 7.739137e-02
 2 -1 0 0 101   0  0.000000e+00  0.000000e+00  2.583101e+03  2.583101e+03 0.0 0.0 9.0
21 -1 0 0 103 101  0.000000e+00  0.000000e+00 -2.428196e+03  2.428196e+03 0.0 0.0 9.0
 2  1 1 2 103   0 -1.113869e+03 -2.130863e+03 -6.235935e+02  2.483978e+03 0.0022 0.0 9.0
22  1 1 2   0   0  1.113869e+03  2.130863e+03  7.784982e+02  2.527319e+03 0.0 0.0 9.0
#pdf 2 21 3.974001e-01 3.735686e-01 5000.0 1.449156e-01 1.674277e-01
</event>
<event>
4 7 1.0 5000.0 7.905138e-03 7.739137e-02
21 -1 0 0 103 101  0.000000e+00  0.000000e+00  2.493728e+03  2.493728e+03 0.0 0.0 9.0
 2 -1 0 0 101   0  0.000000e+00  0.000000e+00 -2.387907e+03  2.387907e+03 0.0 0.0 9.0
22  1 1 2   0   0  5.516055e+02  1.193431e+03  2.109177e+03  2.485392e+03 0.0 0.0 9.0
 2  1 1 2 103   0 -5.516055e+02 -1.193431e+03 -2.003356e+03  2.396243e+03 0.0022 0.0 9.0
#pdf 21 2 3.836504e-01 3.673703e-01 5000.0 1.287360e-02 1.574685e-02
</event>
<event>
4 7 1.0 5000.0 7.905138e-03 7.739137e-02
21 -1 0 0 103 101  0.000000e+00  0.000000e+00  3.364874e+03  3.364874e+03 0.0 0.0 9.0
 2 -1 0 0 101   0  0.000000e+00  0.000000e+00 -1.835069e+03  1.835069e+03 0.0 0.0 9.0
 2  1 1 2 103   0  1.946413e+03 -1.060978e+03  1.939646e+03  2.945577e+03 0.0022 0.0 9.0
22  1 1 2   0   0 -1.946413e+03  1.060978e+03 -4.098414e+02  2.254366e+03 0.0 0.0 9.0
#pdf 21 2 5.176730e-01 2.823184e-01 5000.0 2.203062e-03 4.472780e-02
</event>
<event>
4 7 1.0 5000.0 7.905138e-03 7.739137e-02
 2 -1 0 0 101   0  0.000000e+00  0.000000e+00  2.007313e+03  2.007313e+03 0.0 0.0 9.0
21 -1 0 0 103 101  0.000000e+00  0.000000e+00 -3.207109e+03  3.207109e+03 0.0 0.0 9.0
22  1 1 2   0   0  8.844941e+02 -1.962011e+03 -1.980769e+03  2.924938e+03 0.0 0.0 9.0
 2  1 1 2 103   0 -8.844941e+02  1.962011e+03  7.809739e+02  2.289484e+03 0.0022 0.0 9.0
#pdf 2 21 3.088174e-01 4.934013e-01 5000.0 2.384822e-01 7.418916e-02
</event>
<event>
4 7 1.0 5000.0 7.905138e-03 7.739137e-02
 2 -1 0 0 101   0  0.000000e+00  0.000000e+00  2.488481e+03  2.488481e+03 0.0 0.0 9.0
21 -1 0 0 103 101  0.000000e+00  0.000000e+00 -2.540812e+03  2.540812e+03 0.0 0.0 9.0
22  1 1 2   0   0 -2.000550e+03 -1.433435e+03 -5.417771e+02  2.520011e+03 0.0 0.0 9.0
 2  1 1 2 103   0  2.000550e+03  1.433435e+03  4.894458e+02  2.509281e+03 0.0022 0.0 9.0
#pdf 2 21 3.828432e-01 3.908941e-01 5000.0 1.584349e-01 1.508678e-01
</event>
<event>
4 7 1.0 5000.0 7.905138e-03 7.739137e-02
21 -1 0 0 103 101  0.000000e+00  0.000000e+00  1.837560e+03  1.837560e+03 0.0 0.0 9.0
 2 -1 0 0 101   0  0.000000e+00  0.000000e+00 -3.369225e+03  3.369225e+03 0.0 0.0 9.0
 2  1 1 2 103   0  2.173349e+03 -1.180640e+03 -1.050061e+03  2.687003e+03 0.0022 0.0 9.0
22  1 1 2   0   0 -2.173349e+03  1.180640e+03 -4.816049e+02  2.519782e+03 0.0 0.0 9.0
#pdf 21 2 2.827015e-01 5.183423e-01 5000.0 4.451765e-02 2.182250e-03
</event>
<event>
4 7 1.0 5000.0 7.905138e-03 7.739137e-02
 2 -1 0 0 101   0  0.000000e+00  0.000000e+00  3.933293e+03  3.933293e+03 0.0 0.0 9.0
21 -1 0 0 103 101  0.000000e+00  0.000000e+00 -1.644937e+03  1.644937e+03 0.0 0.0 9.0
22  1 1 2   0   0 -1.708897e+02  2.447275e+03  1.881097e+03  3.091421e+03 0.0 0.0 9.0
 2  1 1 2 103   0  1.708897e+02 -2.447275e+03  4.072590e+02  2.486809e+03 0.0022 0.0 9.0
#pdf 2 21 6.051220e-01 2.530672e-01 5000.0 2.740015e-02 3.094921e-01
</event>
<event>
4 7 1.0 5000.0 7.905138e-03 7.739137e-02
21 -1 0 0 103 101  0.000000e+00  0.000000e+00  3.611228e+03  3.611228e+03 0.0 0.0 9.0
 2 -1 0 0 101   0  0.000000e+00  0.000000e+00 -1.751700e+03  1.751700e+03 0.0 0.0 9.0
 2  1 1 2 103   0 -2.157939e+03  1.239796e+03  5.424267e+02  2.547160e+03 0.0022 0.0 9.0
22  1 1 2   0   0  2.157939e+03 -1.239796e+03  1.317102e+03  2.815768e+03 0.0 0.0 9.0
#pdf 21 2 5.555736e-01 2.694923e-01 5000.0 1.273649e-03 5.237166e-02
</event>
<event>
4 7 1.0 5000.0 7.905138e-03 7.739137e-02
 2 -1 0 0 101   0  0.000000e+00  0.000000e+00  3.964201e+03  3.964201e+03 0.0 0.0 9.0
21 -1 0 0 103 101  0.000000e+00  0.000000e+00 -1.642377e+03  1.642377e+03 0.0 0.0 9.0
 2  1 1 2 103   0  2.490273e+03  1.541526e+02  5.738999e+02  2.560192e+03 0.0022 0.0 9.0
22  1 1 2   0   0 -2.490273e+03 -1.541526e+02  1.747924e+03  3.046385e+03 0.0 0.0 9.0
#pdf 2 21 6.098770e-01 2.526733e-01 5000.0 2.608989e-02 3.100178e-01
</event>
<event>
4 7 1.0 5000.0 7.905138e-03 7.739137e-02
 2 -1 0 0 101   0  0.000000e+00  0.000000e+00  2.684268e+03  2.684268e+03 0.0 0.0 9.0
21 -1 0 0 103 101  0.000000e+00  0.000000e+00 -2.671766e+03  2.671766e+03 0.0 0.0 9.0
 2  1 1 2 103   0 -8.517820e+02  1.418979e+02  2.541227e+03  2.683934e+03 0.0022 0.0 9.0
22  1 1 2   0   0  8.517820e+02 -1.418979e+02 -2.528725e+03  2.672100e+03 0.0 0.0 9.0
#pdf 2 21 4.129643e-01 4.110409e-01 5000.0 1.312756e-01 1.329143e-01
</event>
<event>
4 7 1.0 5000.0 7.905138e-03 7.739137e-02
 2 -1 0 0 101   0  0.000000e+00  0.000000e+00  3.754056e+03  3.754056e+03 0.0 0.0 9.0
21 -1 0 0 103 101  0.000000e+00  0.000000e+00 -1.541832e+03  1.541832e+03 0.0 0.0 9.0
22  1 1 2   0   0 -1.426307e+03  1.428325e+03  2.546907e+03  3.249800e+03 0.0 0.0 9.0
 2  1 1 2 103   0  1.426307e+03 -1.428325e+03 -3.346834e+02  2.046088e+03 0.0022 0.0 9.0
#pdf 2 21 5.775471e-01 2.372049e-01 5000.0 3.596889e-02 3.308657e-01
</event>
<event>
4 7 1.0 5000.0 7.905138e-03 7.739137e-02
21 -1 0 0 103 101  0.000000e+00  0.000000e+00  3.769689e+03  3.769689e+03 0.0 0.0 9.0
 2 -1 0 0 101   0  0.000000e+00  0.000000e+00 -1.378802e+03  1.378802e+03 0.0 0.0 9.0
22  1 1 2   0   0  2.237293e+03 -2.485381e+02  7.876913e+02  2.384891e+03 0.0 0.0 9.0
 2  1 1 2 103   0 -2.237293e+03  2.485381e+02  1.603196e+03  2.763600e+03 0.0022 0.0 9.0
#pdf 21 2 5.799522e-01 2.121234e-01 5000.0 8.794300e-04 1.075788e-01
</event>
<event>
4 7 1.0 5000.0 7.905138e-03 7.739137e-02
 2 -1 0 0 101   0  0.000000e+00  0.000000e+00  4.530226e+03  4.530226e+03 0.0 0.0 9.0
21 -1 0 0 103 101  0.000000e+00  0.000000e+00 -1.369853e+03  1.369853e+03 0.0 0.0 9.0
 2  1 1 2 103   0 -6.299169e+02 -2.406897e+03  1.729019e+03  3.029762e+03 0.0022 0.0 9.0
22  1 1 2   0   0  6.299169e+02  2.406897e+03  1.431354e+03  2.870317e+03 0.0 0.0 9.0
#pdf 2 21 6.969578e-01 2.107466e-01 5000.0 9.328866e-03 3.671700e-01
</event>
<event>
4 7 1.0 5000.0 7.905138e-03 7.739137e-02
21 -1 0 0 103 101  0.000000e+00  0.000000e+00  3.668569e+03  3.668569e+03 0.0 0.0 9.0
 2 -1 0 0 101   0  0.000000e+00  0.000000e+00 -1.877787e+03  1.877787e+03 0.0 0.0 9.0
 2  1 1 2 103   0 -1.792040e+02  1.447587e+03 -1.410098e+03  2.028792e+03 0.0022 0.0 9.0
22  1 1 2   0   0  1.792040e+02 -1.447587e+03  3.200879e+03  3.517563e+03 0.0 0.0 9.0
#pdf 21 2 5.643952e-01 2.888903e-01 5000.0 1.116789e-03 4.129004e-02
</event>
<event>
4 7 1.0 5000.0 7.905138e-03 7.739137e-02
21 -1 0 0 103 101  0.000000e+00  0.000000e+00  1.314347e+03  1.314347e+03 0.0 0.0 9.0
 2 -1 0 0 101   0  0.000000e+00  0.000000e+00 -4.040692e+03  4.040692e+03 0.0 0.0 9.0
 2  1 1 2 103   0 -1.717186e+03 -1.536511e+03 -1.321636e+03  2.656372e+03 0.0022 0.0 9.0
22  1 1 2   0   0  1.717186e+03  1.536511e+03 -1.404709e+03  2.698666e+03 0.0 0.0 9.0
#pdf 21 2 2.022072e-01 6.216449e-01 5000.0 1.222296e-01 4.509280e-04
</event>
<event>
4 7 1.0 5000.0 7.905138e-03 7.739137e-02
21 -1 0 0 103 101  0.000000e+00  0.000000e+00  2.796957e+03  2.796957e+03 0.0 0.0 9.0
 2 -1 0 0 101   0  0.000000e+00  0.000000e+00 -2.008614e+03  2.008614e+03 0.0 0.0 9.0
22  1 1 2   0   0  3.225876e+02 -1.999785e+03  1.641848e+03  2.607464e+03 0.0 0.0 9.0
 2  1 1 2 103   0 -3.225876e+02  1.999785e+03 -8.535058e+02  2.198107e+03 0.0022 0.0 9.0
#pdf 21 2 4.303010e-01 3.090176e-01 5000.0 7.123525e-03 3.228479e-02
</event>
<event>
4 7 1.0 5000.0 7.905138e-03 7.739137e-02
21 -1 0 0 103 101  0.000000e+00  0.000000e+00  2.272949e+03  2.272949e+03 0.0 0.0 9.0
 2 -1 0 0 101   0  0.000000e+00  0.000000e+00 -2.686475e+03  2.686475e+03 0.0 0.0 9.0
 2  1 1 2 103   0  1.604455e+03  1.702315e+03  5.923038e+02  2.413084e+03 0.0022 0.0 9.0
22  1 1 2   0   0 -1.604455e+03 -1.702315e+03 -1.005830e+03  2.546340e+03 0.0 0.0 9.0
#pdf 21 2 3.496845e-01 4.133038e-01 5000.0 1.959577e-02 8.853627e-03
</event>
<event>
4 7 1.0 5000.0 7.905138e-03 7.739137e-02
21 -1 0 0 103 101  0.000000e+00  0.000000e+00  3.317935e+03  3.317935e+03 0.0 0.0 9.0
 2 -1 0 0 101   0  0.000000e+00  0.000000e+00 -1.697055e+03  1.697055e+03 0.0 0.0 9.0
 2  1 1 2 103   0  1.310577e+03 -1.978150e+03  8.160866e+02  2.509320e+03 0.0022 0.0 9.0
22  1 1 2   0   0 -1.310577e+03  1.978150e+03  8.047936e+02  2.505670e+03 0.0 0.0 9.0
#pdf 21 2 5.104516e-01 2.610854e-01 5000.0 2.438068e-03 5.811363e-02
</event>
<event>
4 7 1.0 5000.0 7.905138e-03 7.739137e-02
21 -1 0 0 103 101  0.000000e+00  0.000000e+00  3.423340e+03  3.423340e+03 0.0 0.0 9.0
 2 -1 0 0 101   0  0.000000e+00  0.000000e+00 -1.834990e+03  1.834990e+03 0.0 0.0 9.0
 2  1 1 2 103   0  4.328750e+01  2.480291e+03  4.187610e+02  2.515766e+03 0.0022 0.0 9.0
22  1 1 2   0   0 -4.328750e+01 -2.480291e+03  1.169589e+03  2.742564e+03 0.0 0.0 9.0
#pdf 21 2 5.266676e-01 2.823061e-01 5000.0 1.939915e-03 4.473452e-02
</event>
<event>
4 7 1.0 5000.0 7.905138e-03 7.739137e-02
 2 -1 0 0 101   0  0.000000e+00  0.000000e+00  2.423992e+03  2.423992e+03 0.0 0.0 9.0
21 -1 0 0 103 101  0.000000e+00  0.000000e+00 -2.779430e+03  2.779430e+03 0.0 0.0 9.0
22  1 1 2   0   0  1.832678e+02  2.433373e+03 -1.064336e+03  2.662274e+03 0.0 0.0 9.0
 2  1 1 2 103   0 -1.832678e+02 -2.433373e+03  7.088983e+02  2.541147e+03 0.0022 0.0 9.0
#pdf 2 21 3.729218e-01 4.276046e-01 5000.0 1.680649e-01 1.192280e-01
</event>
<event>
4 7 1.0 5000.0 7.905138e-03 7.739137e-02
21 -1 0 0 103 101  0.000000e+00  0.000000e+00  3.047275e+03  3.047275e+03 0.0 0.0 9.0
 2 -1 0 0 101   0  0.000000e+00  0.000000e+00 -1.909069e+03  1.909069e+03 0.0 0.0 9.0
 2  1 1 2 103   0  2.337486e+03  1.788369e+02 -1.360095e+01  2.344357e+03 0.0022 0.0 9.0
22  1 1 2   0   0 -2.337486e+03 -1.788369e+02  1.151807e+03  2.611988e+03 0.0 0.0 9.0
#pdf 21 2 4.688116e-01 2.937030e-01 5000.0 4.302340e-03 3.894709e-02
</event>
<event>
4 7 1.0 5000.0 7.905138e-03 7.739137e-02
21 -1 0 0 103 101  0.000000e+00  0.000000e+00  1.736097e+03  1.736097e+03 0.0 0.0 9.0
 2 -1 0 0 101   0  0.000000e+00  0.000000e+00 -3.854362e+03  3.854362e+03 0.0 0.0 9.0
22  1 1 2   0   0 -2.058835e+03  8.131871e+02  3.871708e+02  2.247215e+03 0.0 0.0 9.0
 2  1 1 2 103   0  2.058835e+03 -8.131871e+02 -2.505435e+03  3.343244e+03 0.0022 0.0 9.0
#pdf 21 2 2.670919e-01 5.929787e-01 5000.0 5.394352e-02 7.174284e-04
</event>
<event>
4 7 1.0 5000.0 7.905138e-03 7.739137e-02
21 -1 0 0 103 101  0.000000e+00  0.000000e+00  3.420121e+03  3.420121e+03 0.0 0.0 9.0
 2 -1 0 0 101   0  0.000000e+00  0.000000e+00 -1.862721e+03  1.862721e+03 0.0 0.0 9.0
 2  1 1 2 103   0  6.044774e+02 -2.351349e+03  1.501091e+03  2.854384e+03 0.0022 0.0 9.0
22  1 1 2   0   0 -6.044774e+02  2.351349e+03  5.630909e+01  2.428458e+03 0.0 0.0 9.0
#pdf 21 2 5.261725e-01 2.865725e-01 5000.0 1.953571e-03 4.246531e-02
</event>
<event>
4 7 1.0 5000.0 7.905138e-03 7.739137e-02
 2 -1 0 0 101   0  0.000000e+00  0.000000e+00  1.783964e+03  1.783964e+03 0.0 0.0 9.0
21 -1 0 0 103 101  0.000000e+00  0.000000e+00 -3.583898e+03  3.583898e+03 0.0 0.0 9.0
22  1 1 2   0   0  2.110254e+03 -3.804687e+02 -2.322319e+03  3.160869e+03 0.0 0.0 9.0
 2  1 1 2 103   0 -2.110254e+03  3.804687e+02  5.223854e+02  2.206992e+03 0.0022 0.0 9.0
#pdf 2 21 2.744560e-01 5.513689e-01 5000.0 2.814018e-01 4.578137e-02
</event>
<event>
4 7 1.0 5000.0 7.905138e-03 7.739137e-02
 2 -1 0 0 101   0  0.000000e+00  0.000000e+00  2.273859e+03  2.273859e+03 0.0 0.0 9.0
21 -1 0 0 103 101  0.000000e+00  0.000000e+00 -2.605502e+03  2.605502e+03 0.0 0.0 9.0
22  1 1 2   0   0  1.882428e+03  1.142770e+01  1.380765e+03  2.334561e+03 0.0 0.0 9.0
 2  1 1 2 103   0 -1.882428e+03 -1.142770e+01 -1.712408e+03  2.544800e+03 0.0022 0.0 9.0
#pdf 2 21 3.498244e-01 4.008465e-01 5000.0 1.918563e-01 1.418197e-01
</event>
<event>
4 7 1.0 5000.0 7.905138e-03 7.739137e-02
21 -1 0 0 103 101  0.000000e+00  0.000000e+00  1.376213e+03  1.376213e+03 0.0 0.0 9.0
 2 -1 0 0 101   0  0.000000e+00  0.000000e+00 -4.446759e+03  4.446759e+03 0.0 0.0 9.0
 2  1 1 2 103   0  1.077340e+03  3.540364e+02 -4.122826e+03  4.275944e+03 0.0022 0.0 9.0
22  1 1 2   0   0 -1.077340e+03 -3.540364e+02  1.052279e+03  1.547028e+03 0.0 0.0 9.0
#pdf 21 2 2.117250e-01 6.841168e-01 5000.0 1.081251e-01 1.478054e-04
</event>
<event>
4 7 1.0 5000.0 7.905138e-03 7.739137e-02
 2 -1 0 0 101   0  0.000000e+00  0.000000e+00  1.529485e+03  1.529485e+03 0.0 0.0 9.0
21 -1 0 0 103 101  0.000000e+00  0.000000e+00 -4.092685e+03  4.092685e+03 0.0 0.0 9.0
 2  1 1 2 103   0  8.710947e+02 -4.354959e+01 -3.916348e+03  4.012291e+03 0.0022 0.0 9.0
22  1 1 2   0   0 -8.710947e+02  4.354959e+01  1.353147e+03  1.609879e+03 0.0 0.0 9.0
#pdf 2 21 2.353054e-01 6.296439e-01 5000.0 3.334596e-01 2.112938e-02
</event>
<event>
4 7 1.0 5000.0 7.905138e-03 7.739137e-02
21 -1 0 0 103 101  0.000000e+00  0.000000e+00  3.158204e+03  3.158204e+03 0.0 0.0 9.0
 2 -1 0 0 101   0  0.000000e+00  0.000000e+00 -2.104617e+03  2.104617e+03 0.0 0.0 9.0
22  1 1 2   0   0 -1.787592e+03  5.685253e+02 -1.278395e+03  2.270022e+03 0.0 0.0 9.0
 2  1 1 2 103   0  1.787592e+03 -5.685253e+02  2.331982e+03  2.992799e+03 0.0022 0.0 9.0
#pdf 21 2 4.858775e-01 3.237872e-01 5000.0 3.418512e-03 2.691590e-02
</event>
<event>
4 7 1.0 5000.0 7.905138e-03 7.739137e-02
21 -1 0 0 103 101  0.000000e+00  0.000000e+00  2.332346e+03  2.332346e+03 0.0 0.0 9.0
 2 -1 0 0 101   0  0.000000e+00  0.000000e+00 -2.607330e+03  2.607330e+03 0.0 0.0 9.0
22  1 1 2   0   0  7.409744e+02 -2.300588e+03  3.526049e+02  2.442555e+03 0.0 0.0 9.0
 2  1 1 2 103   0 -7.409744e+02  2.300588e+03 -6.275889e+02  2.497121e+03 0.0022 0.0 9.0
#pdf 21 2 3.588225e-01 4.011277e-01 5000.0 1.749906e-02 1.033212e-02
</event>
<event>
4 7 1.0 5000.0 7.905138e-03 7.739137e-02
21 -1 0 0 103 101  0.000000e+00  0.000000e+00  2.538965e+03  2.538965e+03 0.0 0.0 9.0
 2 -1 0 0 101   0  0.000000e+00  0.000000e+00 -2.430875e+03  2.430875e+03 0.0 0.0 9.0
 2  1 1 2 103   0 -1.923080e+03  1.367853e+03 -7.224430e+02  2.468032e+03 0.0022 0.0 9.0
22  1 1 2   0   0  1.923080e+03 -1.367853e+03  8.305328e+02  2.501808e+03 0.0 0.0 9.0
#pdf 21 2 3.906099e-01 3.739807e-01 5000.0 1.179258e-02 1.451346e-02
</event>
<event>
4 7 1.0 5000.0 7.905138e-03 7.739137e-02
 2 -1 0 0 101   0  0.000000e+00  0.000000e+00  2.991103e+03  2.991103e+03 0.0 0.0 9.0
21 -1 0 0 103 101  0.000000e+00  0.000000e+00 -2.487661e+03  2.487661e+03 0.0 0.0 9.0
 2  1 1 2 103   0  4.070217e+02  3.740314e+02  2.934266e+03  2.985880e+03 0.0022 0.0 9.0
22  1 1 2   0   0 -4.070217e+02 -3.740314e+02 -2.430824e+03  2.492884e+03 0.0 0.0 9.0
#pdf 2 21 4.601697e-01 3.827171e-01 5000.0 9.511736e-02 1.585552e-01
</event>
<event>
4 7 1.0 5000.0 7.905138e-03 7.739137e-02
21 -1 0 0 103 101  0.000000e+00  0.000000e+00  1.968220e+03  1.968220e+03 0.0 0.0 9.0
 2 -1 0 0 101   0  0.000000e+00  0.000000e+00 -3.221078e+03  3.221078e+03 0.0 0.0 9.0
22  1 1 2   0   0  1.483685e+03 -1.394220e+03 -2.153014e+03  2.963214e+03 0.0 0.0 9.0
 2  1 1 2 103   0 -1.483685e+03  1.394220e+03  9.001559e+02  2.226084e+03 0.0022 0.0 9.0
#pdf 21 2 3.028031e-01 4.955504e-01 5000.0 3.482280e-02 2.996703e-03
</event>
<event>
4 7 1.0 5000.0 7.905138e-03 7.739137e-02
21 -1 0 0 103 101  0.000000e+00  0.000000e+00  2.650947e+03  2.650947e+03 0.0 0.0 9.0
 2 -1 0 0 101   0  0.000000e+00  0.000000e+00 -2.400033e+03  2.400033e+03 0.0 0.0 9.0
 2  1 1 2 103   0 -7.215699e+01  2.521334e+03  1.202845e+02  2.525233e+03 0.0022 0.0 9.0
22  1 1 2   0   0  7.215699e+01 -2.521334e+03  1.306290e+02  2.525747e+03 0.0 0.0 9.0
#pdf 21 2 4.078380e-01 3.692359e-01 5000.0 9.491612e-03 1.538153e-02
</event>
<event>
4 7 1.0 5000.0 7.905138e-03 7.739137e-02
 2 -1 0 0 101   0  0.000000e+00  0.000000e+00  4.264332e+03  4.264332e+03 0.0 0.0 9.0
21 -1 0 0 103 101  0.000000e+00  0.000000e+00 -1.466232e+03  1.466232e+03 0.0 0.0 9.0
 2  1 1 2 103   0  2.103022e+03 -6.565619e+02  4.383972e+01  2.203564e+03 0.0022 0.0 9.0
22  1 1 2   0   0 -2.103022e+03  6.565619e+02  2.754260e+03  3.526999e+03 0.0 0.0 9.0
#pdf 2 21 6.560510e-01 2.255741e-01 5000.0 1.564864e-02 3.467851e-01
</event>
<event>
4 7 1.0 5000.0 7.905138e-03 7.739137e-02
21 -1 0 0 103 101  0.000000e+00  0.000000e+00  3.325694e+03  3.325694e+03 0.0 0.0 9.0
 2 -1 0 0 101   0  0.000000e+00  0.000000e+00 -1.688932e+03  1.688932e+03 0.0 0.0 9.0
22  1 1 2   0   0  2.308142e+03  3.782165e+02  1.223042e+03  2.639393e+03 0.0 0.0 9.0
 2  1 1 2 103   0 -2.308142e+03 -3.782165e+02  4.137202e+02  2.375233e+03 0.0022 0.0 9.0
#pdf 21 2 5.116453e-01 2.598357e-01 5000.0 2.397838e-03 5.902927e-02
</event>
<event>
4 7 1.0 5000.0 7.905138e-03 7.739137e-02
 2 -1 0 0 101   0  0.000000e+00  0.000000e+00  4.509567e+03  4.509567e+03 0.0 0.0 9.0
21 -1 0 0 103 101  0.000000e+00  0.000000e+00 -1.427055e+03  1.427055e+03 0.0 0.0 9.0
 2  1 1 2 103   0 -4.799659e+02  2.240676e+03  2.678357e+02  2.307104e+03 0.0022 0.0 9.0
22  1 1 2   0   0  4.799659e+02 -2.240676e+03  2.814677e+03  3.629518e+03 0.0 0.0 9.0
#pdf 2 21 6.937796e-01 2.195469e-01 5000.0 9.737036e-03 3.550333e-01
</event>
<event>
4 7 1.0 5000.0 7.905138e-03 7.739137e-02
21 -1 0 0 103 101  0.000000e+00  0.000000e+00  2.929996e+03  2.929996e+03 0.0 0.0 9.0
 2 -1 0 0 101   0  0.000000e+00  0.000000e+00 -2.392468e+03  2.392468e+03 0.0 0.0 9.0
22  1 1 2   0   0  1.578408e+02  2.400716e+03  1.379691e+03  2.773427e+03 0.0 0.0 9.0
 2  1 1 2 103   0 -1.578408e+02 -2.400716e+03 -8.421622e+02  2.549037e+03 0.0022 0.0 9.0
#pdf 21 2 4.507686e-01 3.680720e-01 5000.0 5.462819e-03 1.560798e-02
</event>
<event>
4 7 1.0 5000.0 7.905138e-03 7.739137e-02
 2 -1 0 0 101   0  0.000000e+00  0.000000e+00  2.475259e+03  2.475259e+03 0.0 0.0 9.0
21 -1 0 0 103 101  0.000000e+00  0.000000e+00 -2.961290e+03  2.961290e+03 0.0 0.0 9.0
22  1 1 2   0   0 -3.494398e+01  2.486564e+03  8.316793e+02  2.622196e+03 0.0 0.0 9.0
 2  1 1 2 103   0  3.494398e+01 -2.486564e+03 -1.317711e+03  2.814353e+03 0.0022 0.0 9.0
#pdf 2 21 3.808090e-01 4.555831e-01 5000.0 1.603832e-01 9.830037e-02
</event>
<event>
4 7 1.0 5000.0 7.905138e-03 7.739137e-02
 2 -1 0 0 101   0  0.000000e+00  0.000000e+00  3.663449e+03  3.663449e+03 0.0 0.0 9.0
21 -1 0 0 103 101  0.000000e+00  0.000000e+00 -1.800979e+03  1.800979e+03 0.0 0.0 9.0
 2  1 1 2 103   0  3.471290e+02 -5.687027e+02 -1.707463e+03  1.832853e+03 0.0022 0.0 9.0
22  1 1 2   0   0 -3.471290e+02  5.687027e+02  3.569932e+03  3.631575e+03 0.0 0.0 9.0
#pdf 2 21 5.636075e-01 2.770737e-01 5000.0 4.099572e-02 2.780253e-01
</event>
<event>
4 7 1.0 5000.0 7.905138e-03 7.739137e-02
 2 -1 0 0 101   0  0.000000e+00  0.000000e+00  3.335034e+03  3.335034e+03 0.0 0.0 9.0
21 -1 0 0 103 101  0.000000e+00  0.000000e+00 -1.862516e+03  1.862516e+03 0.0 0.0 9.0
22  1 1 2   0   0  3.661678e+02 -5.915133e+02 -1.759223e+03  1.891780e+03 0.0 0.0 9.0
 2  1 1 2 103   0 -3.661678e+02  5.915133e+02  3.231741e+03  3.305770e+03 0.0022 0.0 9.0
#pdf 2 21 5.130821e-01 2.865410e-01 5000.0 6.344584e-02 2.659596e-01
</event>
<event>
4 7 1.0 5000.0 7.905138e-03 7.739137e-02
21 -1 0 0 103 101  0.000000e+00  0.000000e+00  2.904818e+03  2.904818e+03 0.0 0.0 9.0
 2 -1 0 0 101   0  0.000000e+00  0.000000e+00 -2.110601e+03  2.110601e+03 0.0 0.0 9.0
22  1 1 2   0   0  6.003340e+02  2.130785e+03  1.520456e+03  2.685597e+03 0.0 0.0 9.0
 2  1 1 2 103   0 -6.003340e+02 -2.130785e+03 -7.262392e+02  2.329822e+03 0.0022 0.0 9.0
#pdf 21 2 4.468951e-01 3.247078e-01 5000.0 5.741644e-03 2.661456e-02
</event>
<event>
4 7 1.0 5000.0 7.905138e-03 7.739137e-02
 2 -1 0 0 101   0  0.000000e+00  0.000000e+00  2.044077e+03  2.044077e+03 0.0 0.0 9.0
21 -1 0 0 103 101  0.000000e+00  0.000000e+00 -3.124163e+03  3.124163e+03 0.0 0.0 9.0
22  1 1 2   0   0 -2.187518e+03  2.696664e+02  7.240210e+02  2.319949e+03 0.0 0.0 9.0
 2  1 1 2 103   0  2.187518e+03 -2.696664e+02 -1.804108e+03  2.848291e+03 0.0022 0.0 9.0
#pdf 2 21 3.144733e-01 4.806405e-01 5000.0 2.317406e-01 8.180148e-02
</event>
<event>
4 7 1.0 5000.0 7.905138e-03 7.739137e-02
 2 -1 0 0 101   0  0.000000e+00  0.000000e+00  2.789400e+03  2.789400e+03 0.0 0.0 9.0
21 -1 0 0 103 101  0.000000e+00  0.000000e+00 -2.128302e+03  2.128302e+03 0.0 0.0 9.0
 2  1 1 2 103   0  3.075550e+02  1.595992e+03  2.162364e+03  2.705106e+03 0.0022 0.0 9.0
22  1 1 2   0   0 -3.075550e+02 -1.595992e+03 -1.501266e+03  2.212596e+03 0.0 0.0 9.0
#pdf 2 21 4.291384e-01 3.274311e-01 5000.0 1.180118e-01 2.166547e-01
</event>
<event>
4 7 1.0 5000.0 7.905138e-03 7.739137e-02
21 -1 0 0 103 101  0.000000e+00  0.000000e+00  2.203496e+03  2.203496e+03 0.0 0.0 9.0
 2 -1 0 0 101   0  0.000000e+00  0.000000e+00 -2.374766e+03  2.374766e+03 0.0 0.0 9.0
 2  1 1 2 103   0  1.832411e+03 -1.362097e+03 -2.262682e+02  2.294392e+03 0.0022 0.0 9.0
22  1 1 2   0   0 -1.832411e+03  1.362097e+03  5.499760e+01  2.283870e+03 0.0 0.0 9.0
#pdf 21 2 3.389994e-01 3.653487e-01 5000.0 2.233511e-02 1.615060e-02
</event>
<event>
4 7 1.0 5000.0 7.905138e-03 7.739137e-02
 2 -1 0 0 101   0  0.000000e+00  0.000000e+00  2.145115e+03  2.145115e+03 0.0 0.0 9.0
21 -1 0 0 103 101  0.000000e+00  0.000000e+00 -2.992942e+03  2.992942e+03 0.0 0.0 9.0
22  1 1 2   0   0 -5.753543e+02  1.943647e+03  1.117549e+03  2.314673e+03 0.0 0.0 9.0
 2  1 1 2 103   0  5.753543e+02 -1.943647e+03 -1.965375e+03  2.823384e+03 0.0022 0.0 9.0
#pdf 2 21 3.300177e-01 4.604526e-01 5000.0 2.137040e-01 9.492359e-02
</event>
<event>
4 7 1.0 5000.0 7.905138e-03 7.739137e-02
21 -1 0 0 103 101  0.000000e+00  0.000000e+00  2.905333e+03  2.905333e+03 0.0 0.0 9.0
 2 -1 0 0 101   0  0.000000e+00  0.000000e+00 -2.245439e+03  2.245439e+03 0.0 0.0 9.0
 2  1 1 2 103   0 -2.785720e+02 -2.211463e+03 -9.276439e+02  2.414269e+03 0.0022 0.0 9.0
22  1 1 2   0   0  2.785720e+02  2.211463e+03  1.587538e+03  2.736503e+03 0.0 0.0 9.0
#pdf 21 2 4.469743e-01 3.454521e-01 5000.0 5.735736e-03 2.063989e-02
</event>
<event>
4 7 1.0 5000.0 7.905138e-03 7.739137e-02
21 -1 0 0 103 101  0.000000e+00  0.000000e+00  3.474567e+03  3.474567e+03 0.0 0.0 9.0
 2 -1 0 0 101   0  0.000000e+00  0.000000e+00 -1.855816e+03  1.855816e+03 0.0 0.0 9.0
 2  1 1 2 103   0  1.401157e+03  2.049605e+03  2.500059e+02  2.495320e+03 0.0022 0.0 9.0
22  1 1 2   0   0 -1.401157e+03 -2.049605e+03  1.368745e+03  2.835063e+03 0.0 0.0 9.0
#pdf 21 2 5.345488e-01 2.855102e-01 5000.0 1.732417e-03 4.301651e-02
</event>
<event>
4 7 1.0 5000.0 7.905138e-03 7.739137e-02
21 -1 0 0 103 101  0.000000e+00  0.000000e+00  1.290173e+03  1.290173e+03 0.0 0.0 9.0
 2 -1 0 0 101   0  0.000000e+00  0.000000e+00 -4.290445e+03  4.290445e+03 0.0 0.0 9.0
 2  1 1 2 103   0 -6.154290e+02  1.186422e+03  7.962170e+02  1.555735e+03 0.0022 0.0 9.0
22  1 1 2   0   0  6.154290e+02 -1.186422e+03 -3.796489e+03  4.024882e+03 0.0 0.0 9.0
#pdf 21 2 1.984882e-01 6.600684e-01 5000.0 1.283137e-01 2.315947e-04
</event>
<event>
4 7 1.0 5000.0 7.905138e-03 7.739137e-02
 2 -1 0 0 101   0  0.000000e+00  0.000000e+00  1.707295e+03  1.707295e+03 0.0 0.0 9.0
21 -1 0 0 103 101  0.000000e+00  0.000000e+00 -3.519892e+03  3.519892e+03 0.0 0.0 9.0
 2  1 1 2 103   0 -1.353517e+03 -2.010763e+03 -1.297041e+03  2.749089e+03 0.0022 0.0 9.0
22  1 1 2   0   0  1.353517e+03  2.010763e+03 -5.155559e+02  2.478098e+03 0.0 0.0 9.0
#pdf 2 21 2.626608e-01 5.415218e-01 5000.0 2.968003e-01 4.993978e-02
</event>
<event>
4 7 1.0 5000.0 7.905138e-03 7.739137e-02
21 -1 0 0 103 101  0.000000e+00  0.000000e+00  2.544362e+03  2.544362e+03 0.0 0.0 9.0
 2 -1 0 0 101   0  0.000000e+00  0.000000e+00 -2.704781e+03  2.704781e+03 0.0 0.0 9.0
22  1 1 2   0   0 -2.756872e+02  1.326752e+03  2.167097e+03  2.555892e+03 0.0 0.0 9.0
 2  1 1 2 103   0  2.756872e+02 -1.326752e+03 -2.327516e+03  2.693252e+03 0.0022 0.0 9.0
#pdf 21 2 3.914403e-01 4.161202e-01 5000.0 1.167000e-02 8.542110e-03
</event>
<event>
4 7 1.0 5000.0 7.905138e-03 7.739137e-02
 2 -1 0 0 101   0  0.000000e+00  0.000000e+00  3.196765e+03  3.196765e+03 0.0 0.0 9.0
21 -1 0 0 103 101  0.000000e+00  0.000000e+00 -1.941158e+03  1.941158e+03 0.0 0.0 9.0
 2  1 1 2 103   0 -8.263089e+02  2.483981e+02  3.037739e+03  3.157902e+03 0.0022 0.0 9.0
22  1 1 2   0   0  8.263089e+02 -2.483981e+02 -1.782132e+03  1.980021e+03 0.0 0.0 9.0
#pdf 2 21 4.918100e-01 2.986397e-01 5000.0 7.511037e-02 2.508657e-01
</event>
<event>
4 7 1.0 5000.0 7.905138e-03 7.739137e-02
21 -1 0 0 103 101  0.000000e+00  0.000000e+00  1.659926e+03  1.659926e+03 0.0 0.0 9.0
 2 -1 0 0 101   0  0.000000e+00  0.000000e+00 -3.819859e+03  3.819859e+03 0.0 0.0 9.0
 2  1 1 2 103   0 -1.737415e+03  1.137457e+03 -2.629595e+03  3.350700e+03 0.0022 0.0 9.0
22  1 1 2   0   0  1.737415e+03 -1.137457e+03  4.696631e+02  2.129085e+03 0.0 0.0 9.0
#pdf 21 2 2.553733e-01 5.876706e-01 5000.0 6.242535e-02 7.801645e-04
</event>
<event>
4 7 1.0 5000.0 7.905138e-03 7.739137e-02
21 -1 0 0 103 101  0.000000e+00  0.000000e+00  1.524986e+03  1.524986e+03 0.0 0.0 9.0
 2 -1 0 0 101   0  0.000000e+00  0.000000e+00 -4.103321e+03  4.103321e+03 0.0 0.0 9.0
22  1 1 2   0   0  7.573525e+02  2.091936e+03 -2.575654e+03  3.403495e+03 0.0 0.0 9.0
 2  1 1 2 103   0 -7.573525e+02 -2.091936e+03 -2.680277e+00  2.224812e+03 0.0022 0.0 9.0
#pdf 21 2 2.346132e-01 6.312801e-01 5000.0 8.085804e-02 3.831774e-04
</event>
<event>
4 7 1.0 5000.0 7.905138e-03 7.739137e-02
21 -1 0 0 103 101  0.000000e+00  0.000000e+00  1.414858e+03  1.414858e+03 0.0 0.0 9.0
 2 -1 0 0 101   0  0.000000e+00  0.000000e+00 -3.193184e+03  3.193184e+03 0.0 0.0 9.0
22  1 1 2   0   0 -1.944813e+02  5.742166e+02  1.319150e+03  1.451794e+03 0.0 0.0 9.0
 2  1 1 2 103   0  1.944813e+02 -5.742166e+02 -3.097476e+03  3.156249e+03 0.0022 0.0 9.0
#pdf 21 2 2.176705e-01 4.912592e-01 5000.0 1.002230e-01 3.177551e-03
</event>
<event>
4 7 1.0 5000.0 7.905138e-03 7.739137e-02
 2 -1 0 0 101   0  0.000000e+00  0.000000e+00  2.711085e+03  2.711085e+03 0.0 0.0 9.0
21 -1 0 0 103 101  0.000000e+00  0.000000e+00 -2.270915e+03  2.270915e+03 0.0 0.0 9.0
 2  1 1 2 103   0  4.219847e+02  1.313170e+03  2.290744e+03  2.673947e+03 0.0022 0.0 9.0
22  1 1 2   0   0 -4.219847e+02 -1.313170e+03 -1.850574e+03  2.308053e+03 0.0 0.0 9.0
#pdf 2 21 4.170901e-01 3.493715e-01 5000.0 1.278030e-01 1.923413e-01
</event>
<event>
4 7 1.0 5000.0 7.905138e-03 7.739137e-02
21 -1 0 0 103 101  0.000000e+00  0.000000e+00  3.081884e+03  3.081884e+03 0.0 0.0 9.0
 2 -1 0 0 101   0  0.000000e+00  0.000000e+00 -2.047153e+03  2.047153e+03 0.0 0.0 9.0
 2  1 1 2 103   0 -1.770544e+01  2.481272e+03  9.155053e+02  2.644840e+03 0.0022 0.0 9.0
22  1 1 2   0   0  1.770544e+01 -2.481272e+03  1.192258e+02  2.484198e+03 0.0 0.0 9.0
#pdf 21 2 4.741361e-01 3.149467e-01 5000.0 4.006938e-03 3.000119e-02
</event>
<event>
4 7 1.0 5000.0 7.905138e-03 7.739137e-02
 2 -1 0 0 101   0  0.000000e+00  0.000000e+00  2.806205e+03  2.806205e+03 0.0 0.0 9.0
21 -1 0 0 103 101  0.000000e+00  0.000000e+00 -2.273711e+03  2.273711e+03 0.0 0.0 9.0
 2  1 1 2 103   0 -1.447391e+03 -1.804509e+03 -7.539206e+02  2.433021e+03 0.0022 0.0 9.0
22  1 1 2   0   0  1.447391e+03  1.804509e+03  1.286414e+03  2.646895e+03 0.0 0.0 9.0
#pdf 2 21 4.317238e-01 3.498017e-01 5000.0 1.159821e-01 1.918805e-01
</event>
<event>
4 7 1.0 5000.0 7.905138e-03 7.739137e-02
21 -1 0 0 103 101  0.000000e+00  0.000000e+00  1.855871e+03  1.855871e+03 0.0 0.0 9.0
 2 -1 0 0 101   0  0.000000e+00  0.000000e+00 -3.147283e+03  3.147283e+03 0.0 0.0 9.0
22  1 1 2   0   0 -1.046975e+03  2.004985e+03 -1.526937e+03  2.729040e+03 0.0 0.0 9.0
 2  1 1 2 103   0  1.046975e+03 -2.004985e+03  2.355251e+02  2.274114e+03 0.0022 0.0 9.0
#pdf 21 2 2.855186e-01 4.841973e-01 5000.0 4.301215e-02 3.497332e-03
</event>
<event>
4 7 1.0 5000.0 7.905138e-03 7.739137e-02
21 -1 0 0 103 101  0.000000e+00  0.000000e+00  3.050473e+03  3.050473e+03 0.0 0.0 9.0
 2 -1 0 0 101   0  0.000000e+00  0.000000e+00 -2.053726e+03  2.053726e+03 0.0 0.0 9.0
22  1 1 2   0   0 -2.173975e+03 -6.569619e+02 -5.744542e+02  2.342598e+03 0.0 0.0 9.0
 2  1 1 2 103   0  2.173975e+03  6.569619e+02  1.571201e+03  2.761601e+03 0.0022 0.0 9.0
#pdf 21 2 4.693035e-01 3.159578e-01 5000.0 4.274263e-03 2.962856e-02
</event>
<event>
4 7 1.0 5000.0 7.905138e-03 7.739137e-02
21 -1 0 0 103 101  0.000000e+00  0.000000e+00  3.404682e+03  3.404682e+03 0.0 0.0 9.0
 2 -1 0 0 101   0  0.000000e+00  0.000000e+00 -1.838677e+03  1.838677e+03 0.0 0.0 9.0
22  1 1 2   0   0 -1.155268e+03 -2.126386e+03  1.448967e+03  2.820579e+03 0.0 0.0 9.0
 2  1 1 2 103   0  1.155268e+03  2.126386e+03  1.170375e+02  2.422779e+03 0.0022 0.0 9.0
#pdf 21 2 5.237972e-01 2.828733e-01 5000.0 2.020303e-03 4.442384e-02
</event>
<event>
4 7 1.0 5000.0 7.905138e-03 7.739137e-02
 2 -1 0 0 101   0  0.000000e+00  0.000000e+00  1.903165e+03  1.903165e+03 0.0 0.0 9.0
21 -1 0 0 103 101  0.000000e+00  0.000000e+00 -3.268170e+03  3.268170e+03 0.0 0.0 9.0
22  1 1 2   0   0 -3.735338e+02 -9.801767e+02 -3.028350e+03  3.204868e+03 0.0 0.0 9.0
 2  1 1 2 103   0  3.735338e+02  9.801767e+02  1.663346e+03  1.966467e+03 0.0022 0.0 9.0
#pdf 2 21 2.927946e-01 5.027953e-01 5000.0 2.580979e-01 6.891330e-02
</event>
<event>
4 7 1.0 5000.0 7.905138e-03 7.739137e-02
 2 -1 0 0 101   0  0.000000e+00  0.000000e+00  3.185824e+03  3.185824e+03 0.0 0.0 9.0
21 -1 0 0 103 101  0.000000e+00  0.000000e+00 -2.004882e+03  2.004882e+03 0.0 0.0 9.0
22  1 1 2   0   0 -6.317066e+02  1.930780e+03  2.134366e+03  2.946606e+03 0.0 0.0 9.0
 2  1 1 2 103   0  6.317066e+02 -1.930780e+03 -9.534238e+02  2.244100e+03 0.0022 0.0 9.0
#pdf 2 21 4.901267e-01 3.084433e-01 5000.0 7.609350e-02 2.389318e-01
</event>
<event>
4 7 1.0 5000.0 7.905138e-03 7.739137e-02
21 -1 0 0 103 101  0.000000e+00  0.000000e+00  3.291038e+03  3.291038e+03 0.0 0.0 9.0
 2 -1 0 0 101   0  0.000000e+00  0.000000e+00 -2.075995e+03  2.075995e+03 0.0 0.0 9.0
22  1 1 2   0   0 -6.674911e+02 -4.300233e+02  3.164226e+03  3.262329e+03 0.0 0.0 9.0
 2  1 1 2 103   0  6.674911e+02  4.300233e+02 -1.949183e+03  2.104704e+03 0.0022 0.0 9.0
#pdf 21 2 5.063136e-01 3.193838e-01 5000.0 2.582298e-03 2.840660e-02
</event>
<event>
4 7 1.0 5000.0 7.905138e-03 7.739137e-02
 2 -1 0 0 101   0  0.000000e+00  0.000000e+00  3.593625e+03  3.593625e+03 0.0 0.0 9.0
21 -1 0 0 103 101  0.000000e+00  0.000000e+00 -1.728857e+03  1.728857e+03 0.0 0.0 9.0
22  1 1 2   0   0  2.957201e+02 -2.324379e+03  1.840016e+03  2.979236e+03 0.0 0.0 9.0
 2  1 1 2 103   0 -2.957201e+02  2.324379e+03  2.475275e+01  2.343246e+03 0.0022 0.0 9.0
#pdf 2 21 5.528654e-01 2.659780e-01 5000.0 4.517473e-02 2.924449e-01
</event>
<event>
4 7 1.0 5000.0 7.905138e-03 7.739137e-02
21 -1 0 0 103 101  0.000000e+00  0.000000e+00  1.890073e+03  1.890073e+03 0.0 0.0 9.0
 2 -1 0 0 101   0  0.000000e+00  0.000000e+00 -3.210650e+03  3.210650e+03 0.0 0.0 9.0
22  1 1 2   0   0  1.646511e+03  1.429397e+03  5.265602e+02  2.243087e+03 0.0 0.0 9.0
 2  1 1 2 103   0 -1.646511e+03 -1.429397e+03 -1.847137e+03  2.857637e+03 0.0022 0.0 9.0
#pdf 21 2 2.907805e-01 4.939462e-01 5000.0 4.035596e-02 3.063229e-03
</event>
<event>
4 7 1.0 5000.0 7.905138e-03 7.739137e-02
21 -1 0 0 103 101  0.000000e+00  0.000000e+00  4.204310e+03  4.204310e+03 0.0 0.0 9.0
 2 -1 0 0 101   0  0.000000e+00  0.000000e+00 -1.435485e+03  1.435485e+03 0.0 0.0 9.0
22  1 1 2   0   0  4.639128e+02 -1.718388e+03 -5.592097e+02  1.865687e+03 0.0 0.0 9.0
 2  1 1 2 103   0 -4.639128e+02  1.718388e+03  3.328035e+03  3.774108e+03 0.0022 0.0 9.0
#pdf 21 2 6.468169e-01 2.208438e-01 5000.0 2.929079e-04 9.623059e-02
</event>
<event>
4 7 1.0 5000.0 7.905138e-03 7.739137e-02
21 -1 0 0 103 101  0.000000e+00  0.000000e+00  3.835821e+03  3.835821e+03 0.0 0.0 9.0
 2 -1 0 0 101   0  0.000000e+00  0.000000e+00 -1.564286e+03  1.564286e+03 0.0 0.0 9.0
22  1 1 2   0   0  1.200903e+03 -1.864674e+03 -1.034369e+01  2.217946e+03 0.0 0.0 9.0
 2  1 1 2 103   0 -1.200903e+03  1.864674e+03  2.281879e+03  3.182161e+03 0.0022 0.0 9.0
#pdf 21 2 5.901264e-01 2.406594e-01 5000.0 7.505721e-04 7.499407e-02
</event>
<event>
4 7 1.0 5000.0 7.905138e-03 7.739137e-02
 2 -1 0 0 101   0  0.000000e+00  0.000000e+00  2.002293e+03  2.002293e+03 0.0 0.0 9.0
21 -1 0 0 103 101  0.000000e+00  0.000000e+00 -3.074804e+03  3.074804e+03 0.0 0.0 9.0
 2  1 1 2 103   0 -6.951004e+02  1.887448e+03  9.502294e+02  2.224536e+03 0.0022 0.0 9.0
22  1 1 2   0   0  6.951004e+02 -1.887448e+03 -2.022741e+03  2.852561e+03 0.0 0.0 9.0
#pdf 2 21 3.080451e-01 4.730468e-01 5000.0 2.394108e-01 8.658396e-02
</event>
<event>
4 7 1.0 5000.0 7.905138e-03 7.739137e-02
 2 -1 0 0 101   0  0.000000e+00  0.000000e+00  2.476640e+03  2.476640e+03 0.0 0.0 9.0
21 -1 0 0 103 101  0.000000e+00  0.000000e+00 -1.921373e+03  1.921373e+03 0.0 0.0 9.0
 2  1 1 2 103   0 -1.012778e+03  1.092867e+03 -1.328477e+03  1.996229e+03 0.0022 0.0 9.0
22  1 1 2   0   0  1.012778e+03 -1.092867e+03  1.883744e+03  2.401785e+03 0.0 0.0 9.0
#pdf 2 21 3.810216e-01 2.955959e-01 5000.0 1.601789e-01 2.546157e-01
</event>
<event>
4 7 1.0 5000.0 7.905138e-03 7.739137e-02
21 -1 0 0 103 101  0.000000e+00  0.000000e+00  2.822915e+03  2.822915e+03 0.0 0.0 9.0
 2 -1 0 0 101   0  0.000000e+00  0.000000e+00 -1.941188e+03  1.941188e+03 0.0 0.0 9.0
22  1 1 2   0   0 -1.350174e+03 -2.757598e+02  2.366428e+03  2.738430e+03 0.0 0.0 9.0
 2  1 1 2 103   0  1.350174e+03  2.757598e+02 -1.484701e+03  2.025673e+03 0.0022 0.0 9.0
#pdf 21 2 4.342946e-01 2.986443e-01 5000.0 6.769334e-03 3.663446e-02
</event>
<event>
4 7 1.0 5000.0 7.905138e-03 7.739137e-02
21 -1 0 0 103 101  0.000000e+00  0.000000e+00  1.950745e+03  1.950745e+03 0.0 0.0 9.0
 2 -1 0 0 101   0  0.000000e+00  0.000000e+00 -3.234775e+03  3.234775e+03 0.0 0.0 9.0
22  1 1 2   0   0 -8.168776e+02 -1.812607e+03  9.427157e+02  2.200351e+03 0.0 0.0 9.0
 2  1 1 2 103   0  8.168776e+02  1.812607e+03 -2.226746e+03  2.985168e+03 0.0022 0.0 9.0
#pdf 21 2 3.001146e-01 4.976576e-01 5000.0 3.595943e-02 2.911151e-03
</event>
<event>
4 7 1.0 5000.0 7.905138e-03 7.739137e-02
21 -1 0 0 103 101  0.000000e+00  0.000000e+00  1.886554e+03  1.886554e+03 0.0 0.0 9.0
 2 -1 0 0 101   0  0.000000e+00  0.000000e+00 -3.279574e+03  3.279574e+03 0.0 0.0 9.0
 2  1 1 2 103   0 -9.768724e+02 -5.445850e+02  1.610715e+03  1.960932e+03 0.0022 0.0 9.0
22  1 1 2   0   0  9.768724e+02  5.445850e+02 -3.003735e+03  3.205196e+03 0.0 0.0 9.0
#pdf 21 2 2.902390e-01 5.045499e-01 5000.0 4.062152e-02 2.646188e-03
</event>
<event>
4 7 1.0 5000.0 7.905138e-03 7.739137e-02
21 -1 0 0 103 101  0.000000e+00  0.000000e+00  3.459320e+03  3.459320e+03 0.0 0.0 9.0
 2 -1 0 0 101   0  0.000000e+00  0.000000e+00 -1.836738e+03  1.836738e+03 0.0 0.0 9.0
22  1 1 2   0   0  1.687332e+03 -1.256274e+02 -1.151519e+03  2.046672e+03 0.0 0.0 9.0
 2  1 1 2 103   0 -1.687332e+03  1.256274e+02  2.774101e+03  3.249386e+03 0.0022 0.0 9.0
#pdf 21 2 5.322031e-01 2.825751e-01 5000.0 1.792451e-03 4.458682e-02
</event>
<event>
4 7 1.0 5000.0 7.905138e-03 7.739137e-02
 2 -1 0 0 101   0  0.000000e+00  0.000000e+00  1.985600e+03  1.985600e+03 0.0 0.0 9.0
21 -1 0 0 103 101  0.000000e+00  0.000000e+00 -3.136911e+03  3.136911e+03 0.0 0.0 9.0
22  1 1 2   0   0  1.470728e+03  1.983747e+03 -2.051245e+02  2.477976e+03 0.0 0.0 9.0
 2  1 1 2 103   0 -1.470728e+03 -1.983747e+03 -9.461865e+02  2.644534e+03 0.0022 0.0 9.0
#pdf 2 21 3.054769e-01 4.826017e-01 5000.0 2.425131e-01 8.059803e-02
</event>
<event>
4 7 1.0 5000.0 7.905138e-03 7.739137e-02
21 -1 0 0 103 101  0.000000e+00  0.000000e+00  1.416007e+03  1.416007e+03 0.0 0.0 9.0
 2 -1 0 0 101   0  0.000000e+00  0.000000e+00 -4.376927e+03  4.376927e+03 0.0 0.0 9.0
22  1 1 2   0   0  3.718765e+02 -2.450276e+03 -1.754828e+03  3.036703e+03 0.0 0.0 9.0
 2  1 1 2 103   0 -3.718765e+02  2.450276e+03 -1.206092e+03  2.756230e+03 0.0022 0.0 9.0
#pdf 21 2 2.178472e-01 6.733733e-01 5000.0 9.999651e-02 1.811185e-04
</event>
<event>
4 7 1.0 5000.0 7.905138e-03 7.739137e-02
 2 -1 0 0 101   0  0.000000e+00  0.000000e+00  3.409067e+03  3.409067e+03 0.0 0.0 9.0
21 -1 0 0 103 101  0.000000e+00  0.000000e+00 -1.949439e+03  1.949439e+03 0.0 0.0 9.0
22  1 1 2   0   0 -2.544261e+03 -2.798457e+02  4.108463e+02  2.592368e+03 0.0 0.0 9.0
 2  1 1 2 103   0  2.544261e+03  2.798457e+02  1.048781e+03  2.766138e+03 0.0022 0.0 9.0
#pdf 2 21 5.244718e-01 2.999137e-01 5000.0 5.776396e-02 2.493075e-01
</event>
<event>
4 7 1.0 5000.0 7.905138e-03 7.739137e-02
 2 -1 0 0 101   0  0.000000e+00  0.000000e+00  2.251249e+03  2.251249e+03 0.0 0.0 9.0
21 -1 0 0 103 101  0.000000e+00  0.000000e+00 -2.805934e+03  2.805934e+03 0.0 0.0 9.0
22  1 1 2   0   0  3.641508e+02 -6.974722e+02 -2.678835e+03  2.791993e+03 0.0 0.0 9.0
 2  1 1 2 103   0 -3.641508e+02  6.974722e+02  2.124150e+03  2.265190e+03 0.0022 0.0 9.0
#pdf 2 21 3.463460e-01 4.316822e-01 5000.0 1.956001e-01 1.160146e-01
</event>
<event>
4 7 1.0 5000.0 7.905138e-03 7.739137e-02
 2 -1 0 0 101   0  0.000000e+00  0.000000e+00  3.222941e+03  3.222941e+03 0.0 0.0 9.0
21 -1 0 0 103 101  0.000000e+00  0.000000e+00 -1.959471e+03  1.959471e+03 0.0 0.0 9.0
 2  1 1 2 103   0  9.152728e+02 -1.166335e+03  2.723955e+03  3.101289e+03 0.0022 0.0 9.0
22  1 1 2   0   0 -9.152728e+02  1.166335e+03 -1.460484e+03  2.081124e+03 0.0 0.0 9.0
#pdf 2 21 4.958371e-01 3.014571e-01 5000.0 7.279455e-02 2.474142e-01
</event>
<event>
4 7 1.0 5000.0 7.905138e-03 7.739137e-02
 2 -1 0 0 101   0  0.000000e+00  0.000000e+00  4.175081e+03  4.175081e+03 0.0 0.0 9.0
21 -1 0 0 103 101  0.000000e+00  0.000000e+00 -1.531776e+03  1.531776e+03 0.0 0.0 9.0
 2  1 1 2 103   0 -1.136871e+03  5.051432e+02  3.805942e+03  4.004103e+03 0.0022 0.0 9.0
22  1 1 2   0   0  1.136871e+03 -5.051432e+02 -1.162637e+03  1.702754e+03 0.0 0.0 9.0
#pdf 2 21 6.423202e-01 2.356578e-01 5000.0 1.834114e-02 3.329778e-01
</event>
<event>
4 7 1.0 5000.0 7.905138e-03 7.739137e-02
21 -1 0 0 103 101  0.000000e+00  0.000000e+00  2.962414e+03  2.962414e+03 0.0 0.0 9.0
 2 -1 0 0 101   0  0.000000e+00  0.000000e+00 -1.687102e+03  1.687102e+03 0.0 0.0 9.0
22  1 1 2   0   0 -1.794921e+03  3.885171e+02 -6.880243e+02  1.961138e+03 0.0 0.0 9.0
 2  1 1 2 103   0  1.794921e+03 -3.885171e+02  1.963336e+03  2.688378e+03 0.0022 0.0 9.0
#pdf 21 2 4.557560e-01 2.595542e-01 5000.0 5.116634e-03 5.923780e-02
</event>
<event>
4 7 1.0 5000.0 7.905138e-03 7.739137e-02
21 -1 0 0 103 101  0.000000e+00  0.000000e+00  3.715561e+03  3.715561e+03 0.0 0.0 9.0
 2 -1 0 0 101   0  0.000000e+00  0.000000e+00 -1.735845e+03  1.735845e+03 0.0 0.0 9.0
 2  1 1 2 103   0  1.259636e+03  2.009179e+03  1.965391e+03  3.079975e+03 0.0022 0.0 9.0
22  1 1 2   0   0 -1.259636e+03 -2.009179e+03  1.432526e+01  2.371431e+03 0.0 0.0 9.0
#pdf 21 2 5.716248e-01 2.670531e-01 5000.0 9.995653e-04 5.396936e-02
</event>
<event>
4 7 1.0 5000.0 7.905138e-03 7.739137e-02
 2 -1 0 0 101   0  0.000000e+00  0.000000e+00  1.569948e+03  1.569948e+03 0.0 0.0 9.0
21 -1 0 0 103 101  0.000000e+00  0.000000e+00 -3.973587e+03  3.973587e+03 0.0 0.0 9.0
 2  1 1 2 103   0  1.871033e+03  1.351100e+03 -1.419761e+02  2.312227e+03 0.0022 0.0 9.0
22  1 1 2   0   0 -1.871033e+03 -1.351100e+03 -2.261663e+03  3.231308e+03 0.0 0.0 9.0
#pdf 2 21 2.415305e-01 6.113211e-01 5000.0 3.249992e-01 2.570113e-02
</event>
<event>
4 7 1.0 5000.0 7.905138e-03 7.739137e-02
 2 -1 0 0 101   0  0.000000e+00  0.000000e+00  3.558298e+03  3.558298e+03 0.0 0.0 9.0
21 -1 0 0 103 101  0.000000e+00  0.000000e+00 -1.752138e+03  1.752138e+03 0.0 0.0 9.0
 2  1 1 2 103   0  2.361916e+03  5.155262e+02  1.567351e+03  2.881147e+03 0.0022 0.0 9.0
22  1 1 2   0   0 -2.361916e+03 -5.155262e+02  2.388091e+02  2.429289e+03 0.0 0.0 9.0
#pdf 2 21 5.474305e-01 2.695597e-01 5000.0 4.741940e-02 2.877617e-01
</event>
<event>
4 7 1.0 5000.0 7.905138e-03 7.739137e-02
21 -1 0 0 103 101  0.000000e+00  0.000000e+00  2.825942e+03  2.825942e+03 0.0 0.0 9.0
 2 -1 0 0 101   0  0.000000e+00  0.000000e+00 -2.130477e+03  2.130477e+03 0.0 0.0 9.0
22  1 1 2   0   0 -1.119566e+03 -2.137421e+03  7.978392e+02  2.541367e+03 0.0 0.0 9.0
 2  1 1 2 103   0  1.119566e+03  2.137421e+03 -1.023742e+02  2.415053e+03 0.0022 0.0 9.0
#pdf 21 2 4.347603e-01 3.277657e-01 5000.0 6.729189e-03 2.563773e-02
</event>
<event>
4 7 1.0 5000.0 7.905138e-03 7.739137e-02
 2 -1 0 0 101   0  0.000000e+00  0.000000e+00  1.938125e+03  1.938125e+03 0.0 0.0 9.0
21 -1 0 0 103 101  0.000000e+00  0.000000e+00 -3.347150e+03  3.347150e+03 0.0 0.0 9.0
22  1 1 2   0   0 -2.242440e+03  1.206640e+03 -6.508139e+02  2.628322e+03 0.0 0.0 9.0
 2  1 1 2 103   0  2.242440e+03 -1.206640e+03 -7.582114e+02  2.656953e+03 0.0022 0.0 9.0
#pdf 2 21 2.981730e-01 5.149462e-01 5000.0 2.514382e-01 6.248909e-02
</event>
<event>
4 7 1.0 5000.0 7.905138e-03 7.739137e-02
 2 -1 0 0 101   0  0.000000e+00  0.000000e+00  2.035101e+03  2.035101e+03 0.0 0.0 9.0
21 -1 0 0 103 101  0.000000e+00  0.000000e+00 -3.003466e+03  3.003466e+03 0.0 0.0 9.0
22  1 1 2   0   0  1.263198e+03  1.707045e+03  8.058389e+02  2.271354e+03 0.0 0.0 9.0
 2  1 1 2 103   0 -1.263198e+03 -1.707045e+03 -1.774204e+03  2.767214e+03 0.0022 0.0 9.0
#pdf 2 21 3.130925e-01 4.620717e-01 5000.0 2.333771e-01 9.382109e-02
</event>
<event>
4 7 1.0 5000.0 7.905138e-03 7.739137e-02
21 -1 0 0 103 101  0.000000e+00  0.000000e+00  1.266859e+03  1.266859e+03 0.0 0.0 9.0
 2 -1 0 0 101   0  0.000000e+00  0.000000e+00 -5.005930e+03  5.005930e+03 0.0 0.0 9.0
 2  1 1 2 103   0  2.126600e+03 -5.938746e+02 -3.612135e+02  2.237318e+03 0.0022 0.0 9.0
22  1 1 2   0   0 -2.126600e+03  5.938746e+02 -3.377857e+03  4.035471e+03 0.0 0.0 9.0
#pdf 21 2 1.949015e-01 7.701430e-01 5000.0 1.344348e-01 2.260997e-05
</event>
<event>
4 7 1.0 5000.0 7.905138e-03 7.739137e-02
 2 -1 0 0 101   0  0.000000e+00  0.000000e+00  1.931488e+03  1.931488e+03 0.0 0.0 9.0
21 -1 0 0 103 101  0.000000e+00  0.000000e+00 -3.140845e+03  3.140845e+03 0.0 0.0 9.0
22  1 1 2   0   0 -9.549761e+00  1.635575e+03 -2.500913e+03  2.988271e+03 0.0 0.0 9.0
 2  1 1 2 103   0  9.549761e+00 -1.635575e+03  1.291556e+03  2.084062e+03 0.0022 0.0 9.0
#pdf 2 21 2.971520e-01 4.832068e-01 5000.0 2.526939e-01 8.022915e-02
</event>
<event>
4 7 1.0 5000.0 7.905138e-03 7.739137e-02
 2 -1 0 0 101   0  0.000000e+00  0.000000e+00  3.628749e+03  3.628749e+03 0.0 0.0 9.0
21 -1 0 0 103 101  0.000000e+00  0.000000e+00 -1.653279e+03  1.653279e+03 0.0 0.0 9.0
 2  1 1 2 103   0  1.663639e+03 -1.790571e+03  1.159894e+03  2.705401e+03 0.0022 0.0 9.0
22  1 1 2   0   0 -1.663639e+03  1.790571e+03  8.155748e+02  2.576626e+03 0.0 0.0 9.0
#pdf 2 21 5.582690e-01 2.543507e-01 5000.0 4.304636e-02 3.077822e-01
</event>
<event>
4 7 1.0 5000.0 7.905138e-03 7.739137e-02
 2 -1 0 0 101   0  0.000000e+00  0.000000e+00  3.400439e+03  3.400439e+03 0.0 0.0 9.0
21 -1 0 0 103 101  0.000000e+00  0.000000e+00 -1.855633e+03  1.855633e+03 0.0 0.0 9.0
 2  1 1 2 103   0  8.107058e+02 -1.916516e+03 -6.996252e+02  2.195394e+03 0.0022 0.0 9.0
22  1 1 2   0   0 -8.107058e+02  1.916516e+03  2.244432e+03  3.060678e+03 0.0 0.0 9.0
#pdf 2 21 5.231445e-01 2.854819e-01 5000.0 5.840594e-02 2.673006e-01
</event>
<event>
4 7 1.0 5000.0 7.905138e-03 7.739137e-02
 2 -1 0 0 101   0  0.000000e+00  0.000000e+00  3.617374e+03  3.617374e+03 0.0 0.0 9.0
21 -1 0 0 103 101  0.000000e+00  0.000000e+00 -1.681488e+03  1.681488e+03 0.0 0.0 9.0
22  1 1 2   0   0  2.203960e+03 -4.932409e+02 -9.651878e+01  2.260540e+03 0.0 0.0 9.0
 2  1 1 2 103   0 -2.203960e+03  4.932409e+02  2.032405e+03  3.038322e+03 0.0022 0.0 9.0
#pdf 2 21 5.565191e-01 2.586904e-01 5000.0 4.372993e-02 3.020313e-01
</event>
<event>
4 7 1.0 5000.0 7.905138e-03 7.739137e-02
21 -1 0 0 103 101  0.000000e+00  0.000000e+00  1.775497e+03  1.775497e+03 0.0 0.0 9.0
 2 -1 0 0 101   0  0.000000e+00  0.000000e+00 -2.833866e+03  2.833866e+03 0.0 0.0 9.0
 2  1 1 2 103   0 -1.594968e+03  6.420881e+02 -2.009328e+03  2.644542e+03 0.0022 0.0 9.0
22  1 1 2   0   0  1.594968e+03 -6.420881e+02  9.509589e+02  1.964821e+03 0.0 0.0 9.0
#pdf 21 2 2.731534e-01 4.359794e-01 5000.0 5.006672e-02 6.625098e-03
</event>
<event>
4 7 1.0 5000.0 7.905138e-03 7.739137e-02
 2 -1 0 0 101   0  0.000000e+00  0.000000e+00  2.053124e+03  2.053124e+03 0.0 0.0 9.0
21 -1 0 0 103 101  0.000000e+00  0.000000e+00 -2.788282e+03  2.788282e+03 0.0 0.0 9.0
 2  1 1 2 103   0  2.064747e+03  4.822690e+02 -1.489155e+03  2.591012e+03 0.0022 0.0 9.0
22  1 1 2   0   0 -2.064747e+03 -4.822690e+02  7.539962e+02  2.250394e+03 0.0 0.0 9.0
#pdf 2 21 3.158652e-01 4.289665e-01 5000.0 2.300970e-01 1.181477e-01
</event>
<event>
4 7 1.0 5000.0 7.905138e-03 7.739137e-02
 2 -1 0 0 101   0  0.000000e+00  0.000000e+00  2.189741e+03  2.189741e+03 0.0 0.0 9.0
21 -1 0 0 103 101  0.000000e+00  0.000000e+00 -2.867501e+03  2.867501e+03 0.0 0.0 9.0
22  1 1 2   0   0 -1.845970e+03  1.674266e+03 -7.513684e+01  2.493275e+03 0.0 0.0 9.0
 2  1 1 2 103   0  1.845970e+03 -1.674266e+03 -6.026240e+02  2.563967e+03 0.0022 0.0 9.0
#pdf 2 21 3.368832e-01 4.411541e-01 5000.0 2.059859e-01 1.087667e-01
</event>
<event>
4 7 1.0 5000.0 7.905138e-03 7.739137e-02
21 -1 0 0 103 101  0.000000e+00  0.000000e+00  2.495064e+03  2.495064e+03 0.0 0.0 9.0
 2 -1 0 0 101   0  0.000000e+00  0.000000e+00 -2.563550e+03  2.563550e+03 0.0 0.0 9.0
22  1 1 2   0   0  4.921034e+00  2.476251e+03 -5.484695e+02  2.536269e+03 0.0 0.0 9.0
 2  1 1 2 103   0 -4.921034e+00 -2.476251e+03  4.799839e+02  2.522345e+03 0.0022 0.0 9.0
#pdf 21 2 3.838561e-01 3.943923e-01 5000.0 1.284036e-02 1.124489e-02
</event>
<event>
4 7 1.0 5000.0 7.905138e-03 7.739137e-02
21 -1 0 0 103 101  0.000000e+00  0.000000e+00  2.906504e+03  2.906504e+03 0.0 0.0 9.0
 2 -1 0 0 101   0  0.000000e+00  0.000000e+00 -2.029460e+03  2.029460e+03 0.0 0.0 9.0
22  1 1 2   0   0 -5.338983e+02 -1.937524e+03  1.824239e+03  2.714202e+03 0.0 0.0 9.0
 2  1 1 2 103   0  5.338983e+02  1.937524e+03 -9.471959e+02  2.221762e+03 0.0022 0.0 9.0
#pdf 21 2 4.471544e-01 3.122247e-01 5000.0 5.722346e-03 3.102978e-02
</event>
<event>
4 7 1.0 5000.0 7.905138e-03 7.739137e-02
21 -1 0 0 103 101  0.000000e+00  0.000000e+00  3.079716e+03  3.079716e+03 0.0 0.0 9.0
 2 -1 0 0 101   0  0.000000e+00  0.000000e+00 -2.038693e+03  2.038693e+03 0.0 0.0 9.0
 2  1 1 2 103   0 -2.094679e+03  9.051551e+02  1.577797e+03  2.774244e+03 0.0022 0.0 9.0
22  1 1 2   0   0  2.094679e+03 -9.051551e+02 -5.367730e+02  2.344165e+03 0.0 0.0 9.0
#pdf 21 2 4.738025e-01 3.136450e-01 5000.0 4.024905e-03 3.048858e-02
</event>
<event>
4 7 1.0 5000.0 7.905138e-03 7.739137e-02
 2 -1 0 0 101   0  0.000000e+00  0.000000e+00  1.828327e+03  1.828327e+03 0.0 0.0 9.0
21 -1 0 0 103 101  0.000000e+00  0.000000e+00 -3.479340e+03  3.479340e+03 0.0 0.0 9.0
22  1 1 2   0   0  1.012647e+03  1.722755e+03  7.936619e+02  2.150171e+03 0.0 0.0 9.0
 2  1 1 2 103   0 -1.012647e+03 -1.722755e+03 -2.444675e+03  3.157495e+03 0.0022 0.0 9.0
#pdf 2 21 2.812810e-01 5.352831e-01 5000.0 2.726384e-01 5.270869e-02
</event>
<event>
4 7 1.0 5000.0 7.905138e-03 7.739137e-02
21 -1 0 0 103 101  0.000000e+00  0.000000e+00  2.178263e+03  2.178263e+03 0.0 0.0 9.0
 2 -1 0 0 101   0  0.000000e+00  0.000000e+00 -2.199429e+03  2.199429e+03 0.0 0.0 9.0
 2  1 1 2 103   0  5.681205e+02  3.373970e+02 -2.097312e+03  2.198935e+03 0.0022 0.0 9.0
22  1 1 2   0   0 -5.681205e+02 -3.373970e+02  2.076147e+03  2.178757e+03 0.0 0.0 9.0
#pdf 21 2 3.351175e-01 3.383736e-01 5000.0 2.342759e-02 2.250724e-02
</event>
<event>
4 7 1.0 5000.0 7.905138e-03 7.739137e-02
 2 -1 0 0 101   0  0.000000e+00  0.000000e+00  2.929560e+03  2.929560e+03 0.0 0.0 9.0
21 -1 0 0 103 101  0.000000e+00  0.000000e+00 -2.149646e+03  2.149646e+03 0.0 0.0 9.0
22  1 1 2   0   0 -9.935599e+02 -1.724514e+03  1.936833e+03  2.777126e+03 0.0 0.0 9.0
 2  1 1 2 103   0  9.935599e+02  1.724514e+03 -1.156919e+03  2.302080e+03 0.0022 0.0 9.0
#pdf 2 21 4.507016e-01 3.307148e-01 5000.0 1.017592e-01 2.129127e-01
</event>
<event>
4 7 1.0 5000.0 7.905138e-03 7.739137e-02
 2 -1 0 0 101   0  0.000000e+00  0.000000e+00  2.282538e+03  2.282538e+03 0.0 0.0 9.0
21 -1 0 0 103 101  0.000000e+00  0.000000e+00 -2.822090e+03  2.822090e+03 0.0 0.0 9.0
 2  1 1 2 103   0  8.454369e+02  9.832747e+02  1.924242e+03  2.320409e+03 0.0022 0.0 9.0
22  1 1 2   0   0 -8.454369e+02 -9.832747e+02 -2.463794e+03  2.784219e+03 0.0 0.0 9.0
#pdf 2 21 3.511597e-01 4.341678e-01 5000.0 1.904303e-01 1.140854e-01
</event>
<event>
4 7 1.0 5000.0 7.905138e-03 7.739137e-02
 2 -1 0 0 101   0  0.000000e+00  0.000000e+00  2.808804e+03  2.808804e+03 0.0 0.0 9.0
21 -1 0 0 103 101  0.000000e+00  0.000000e+00 -2.188561e+03  2.188561e+03 0.0 0.0 9.0
22  1 1 2   0   0 -1.540150e+03 -1.685882e+03 -6.633138e+02  2.377866e+03 0.0 0.0 9.0
 2  1 1 2 103   0  1.540150e+03  1.685882e+03  1.283556e+03  2.619499e+03 0.0022 0.0 9.0
#pdf 2 21 4.321237e-01 3.367018e-01 5000.0 1.156704e-01 2.061877e-01
</event>
<event>
4 7 1.0 5000.0 7.905138e-03 7.739137e-02
 2 -1 0 0 101   0  0.000000e+00  0.000000e+00  2.316402e+03  2.316402e+03 0.0 0.0 9.0
21 -1 0 0 103 101  0.000000e+00  0.000000e+00 -2.755634e+03  2.755634e+03 0.0 0.0 9.0
22  1 1 2   0   0 -1.280114e+02 -1.544627e+03  1.783126e+03  2.362583e+03 0.0 0.0 9.0
 2  1 1 2 103   0  1.280114e+02  1.544627e+03 -2.222358e+03  2.709453e+03 0.0022 0.0 9.0
#pdf 2 21 3.563695e-01 4.239437e-01 5000.0 1.849277e-01 1.221676e-01
</event>
<event>
4 7 1.0 5000.0 7.905138e-03 7.739137e-02
21 -1 0 0 103 101  0.000000e+00  0.000000e+00  2.408421e+03  2.408421e+03 0.0 0.0 9.0
 2 -1 0 0 101   0  0.000000e+00  0.000000e+00 -2.595546e+03  2.595546e+03 0.0 0.0 9.0
22  1 1 2   0   0 -9.398898e+02  1.822290e+03 -1.525309e+03  2.555524e+03 0.0 0.0 9.0
 2  1 1 2 103   0  9.398898e+02 -1.822290e+03  1.338184e+03  2.448443e+03 0.0022 0.0 9.0
#pdf 21 2 3.705263e-01 3.993148e-01 5000.0 1.513667e-02 1.057049e-02
</event>
<event>
4 7 1.0 5000.0 7.905138e-03 7.739137e-02
 2 -1 0 0 101   0  0.000000e+00  0.000000e+00  1.715080e+03  1.715080e+03 0.0 0.0 9.0
21 -1 0 0 103 101  0.000000e+00  0.000000e+00 -3.692383e+03  3.692383e+03 0.0 0.0 9.0
 2  1 1 2 103   0 -1.225255e+02  7.435270e+02 -3.568317e+03  3.647016e+03 0.0022 0.0 9.0
22  1 1 2   0   0  1.225255e+02 -7.435270e+02  1.591014e+03  1.760446e+03 0.0 0.0 9.0
#pdf 2 21 2.638584e-01 5.680589e-01 5000.0 2.952262e-01 3.933424e-02
</event>
<event>
4 7 1.0 5000.0 7.905138e-03 7.739137e-02
 2 -1 0 0 101   0  0.000000e+00  0.000000e+00  2.731961e+03  2.731961e+03 0.0 0.0 9.0
21 -1 0 0 103 101  0.000000e+00  0.000000e+00 -2.281926e+03  2.281926e+03 0.0 0.0 9.0
 2  1 1 2 103   0  1.077940e+03 -7.890679e+02 -1.892927e+03  2.316842e+03 0.0022 0.0 9.0
22  1 1 2   0   0 -1.077940e+03  7.890679e+02  2.342961e+03  2.697045e+03 0.0 0.0 9.0
#pdf 2 21 4.203016e-01 3.510656e-01 5000.0 1.251413e-01 1.905306e-01
</event>
<event>
4 7 1.0 5000.0 7.905138e-03 7.739137e-02
 2 -1 0 0 101   0  0.000000e+00  0.000000e+00  3.567349e+03  3.567349e+03 0.0 0.0 9.0
21 -1 0 0 103 101  0.000000e+00  0.000000e+00 -1.674042e+03  1.674042e+03 0.0 0.0 9.0
22  1 1 2   0   0 -8.602924e+02 -2.287082e+03  9.120331e+02  2.608190e+03 0.0 0.0 9.0
 2  1 1 2 103   0  8.602924e+02  2.287082e+03  9.812742e+02  2.633201e+03 0.0022 0.0 9.0
#pdf 2 21 5.488229e-01 2.575449e-01 5000.0 4.683479e-02 3.035453e-01
</event>
<event>
4 7 1.0 5000.0 7.905138e-03 7.739137e-02
21 -1 0 0 103 101  0.000000e+00  0.000000e+00  1.620175e+03  1.620175e+03 0.0 0.0 9.0
 2 -1 0 0 101   0  0.000000e+00  0.000000e+00 -3.916598e+03  3.916598e+03 0.0 0.0 9.0
22  1 1 2   0   0  1.818169e+03  1.032138e+03  3.960570e+02  2.127888e+03 0.0 0.0 9.0
 2  1 1 2 103   0 -1.818169e+03 -1.032138e+03 -2.692481e+03  3.408885e+03 0.0022 0.0 9.0
#pdf 21 2 2.492577e-01 6.025536e-01 5000.0 6.734770e-02 6.162532e-04
</event>
<event>
4 7 1.0 5000.0 7.905138e-03 7.739137e-02
21 -1 0 0 103 101  0.000000e+00  0.000000e+00  3.948135e+03  3.948135e+03 0.0 0.0 9.0
 2 -1 0 0 101   0  0.000000e+00  0.000000e+00 -1.453789e+03  1.453789e+03 0.0 0.0 9.0
22  1 1 2   0   0  2.704125e+01 -1.007583e+03 -1.203118e+03  1.569537e+03 0.0 0.0 9.0
 2  1 1 2 103   0 -2.704125e+01  1.007583e+03  3.697464e+03  3.832387e+03 0.0022 0.0 9.0
#pdf 21 2 6.074054e-01 2.236599e-01 5000.0 5.698732e-04 9.282267e-02
</event>
<event>
4 7 1.0 5000.0 7.905138e-03 7.739137e-02
 2 -1 0 0 101   0  0.000000e+00  0.000000e+00  3.223960e+03  3.223960e+03 0.0 0.0 9.0
21 -1 0 0 103 101  0.000000e+00  0.000000e+00 -1.786330e+03  1.786330e+03 0.0 0.0 9.0
 2  1 1 2 103   0 -4.900332e+01  2.225955e+03  1.653543e+03  2.773352e+03 0.0022 0.0 9.0
22  1 1 2   0   0  4.900332e+01 -2.225955e+03 -2.159126e+02  2.236938e+03 0.0 0.0 9.0
#pdf 2 21 4.959939e-01 2.748200e-01 5000.0 7.270543e-02 2.809312e-01
</event>
<event>
4 7 1.0 5000.0 7.905138e-03 7.739137e-02
 2 -1 0 0 101   0  0.000000e+00  0.000000e+00  3.654350e+03  3.654350e+03 0.0 0.0 9.0
21 -1 0 0 103 101  0.000000e+00  0.000000e+00 -1.750260e+03  1.750260e+03 0.0 0.0 9.0
22  1 1 2   0   0 -4.674617e+02  5.962499e+02 -1.626146e+03  1.793986e+03 0.0 0.0 9.0
 2  1 1 2 103   0  4.674617e+02 -5.962499e+02  3.530237e+03  3.610624e+03 0.0022 0.0 9.0
#pdf 2 21 5.622077e-01 2.692708e-01 5000.0 4.152782e-02 2.881386e-01
</event>
<event>
4 7 1.0 5000.0 7.905138e-03 7.739137e-02
 2 -1 0 0 101   0  0.000000e+00  0.000000e+00  2.197756e+03  2.197756e+03 0.0 0.0 9.0
21 -1 0 0 103 101  0.000000e+00  0.000000e+00 -3.175066e+03  3.175066e+03 0.0 0.0 9.0
22  1 1 2   0   0 -1.609734e+02  6.873227e+02  2.100057e+03  2.215528e+03 0.0 0.0 9.0
 2  1 1 2 103   0  1.609734e+02 -6.873227e+02 -3.077367e+03  3.157295e+03 0.0022 0.0 9.0
#pdf 2 21 3.381164e-01 4.884717e-01 5000.0 2.046166e-01 7.706885e-02
</event>
<event>
4 7 1.0 5000.0 7.905138e-03 7.739137e-02
 2 -1 0 0 101   0  0.000000e+00  0.000000e+00  3.864823e+03  3.864823e+03 0.0 0.0 9.0
21 -1 0 0 103 101  0.000000e+00  0.000000e+00 -1.686201e+03  1.686201e+03 0.0 0.0 9.0
22  1 1 2   0   0 -1.746347e+02 -6.646095e+02  3.762378e+03  3.824616e+03 0.0 0.0 9.0
 2  1 1 2 103   0  1.746347e+02  6.646095e+02 -1.583755e+03  1.726408e+03 0.0022 0.0 9.0
#pdf 2 21 5.945882e-01 2.594155e-01 5000.0 3.046991e-02 3.010743e-01
</event>
<event>
4 7 1.0 5000.0 7.905138e-03 7.739137e-02
21 -1 0 0 103 101  0.000000e+00  0.000000e+00  1.766194e+03  1.766194e+03 0.0 0.0 9.0
 2 -1 0 0 101   0  0.000000e+00  0.000000e+00 -3.912301e+03  3.912301e+03 0.0 0.0 9.0
22  1 1 2   0   0  1.063427e+03 -6.412879e+01 -3.668666e+03  3.820222e+03 0.0 0.0 9.0
 2  1 1 2 103   0 -1.063427e+03  6.412879e+01  1.522559e+03  1.858272e+03 0.0022 0.0 9.0
#pdf 21 2 2.717221e-01 6.018924e-01 5000.0 5.095502e-02 6.228006e-04
</event>
<event>
4 7 1.0 5000.0 7.905138e-03 7.739137e-02
 2 -1 0 0 101   0  0.000000e+00  0.000000e+00  3.981088e+03  3.981088e+03 0.0 0.0 9.0
21 -1 0 0 103 101  0.000000e+00  0.000000e+00 -1.597701e+03  1.597701e+03 0.0 0.0 9.0
22  1 1 2   0   0 -7.715583e+02  5.636410e+02  3.773144e+03  3.892250e+03 0.0 0.0 9.0
 2  1 1 2 103   0  7.715583e+02 -5.636410e+02 -1.389756e+03  1.686540e+03 0.0022 0.0 9.0
#pdf 2 21 6.124751e-01 2.458002e-01 5000.0 2.539354e-02 3.192821e-01
</event>
<event>
4 7 1.0 5000.0 7.905138e-03 7.739137e-02
 2 -1 0 0 101   0  0.000000e+00  0.000000e+00  2.271627e+03  2.271627e+03 0.0 0.0 9.0
21 -1 0 0 103 101  0.000000e+00  0.000000e+00 -2.467240e+03  2.467240e+03 0.0 0.0 9.0
 2  1 1 2 103   0  7.274315e+02  2.252299e+03 -1.492187e+02  2.371556e+03 0.0022 0.0 9.0
22  1 1 2   0   0 -7.274315e+02 -2.252299e+03 -4.639491e+01  2.367311e+03 0.0 0.0 9.0
#pdf 2 21 3.494810e-01 3.795754e-01 5000.0 1.922240e-01 1.615716e-01
</event>
<event>
4 7 1.0 5000.0 7.905138e-03 7.739137e-02
21 -1 0 0 103 101  0.000000e+00  0.000000e+00  2.331944e+03  2.331944e+03 0.0 0.0 9.0
 2 -1 0 0 101   0  0.000000e+00  0.000000e+00 -2.320213e+03  2.320213e+03 0.0 0.0 9.0
22  1 1 2   0   0 -1.898320e+03  1.334429e+03  1.679996e+02  2.326487e+03 0.0 0.0 9.0
 2  1 1 2 103   0  1.898320e+03 -1.334429e+03 -1.562681e+02  2.325670e+03 0.0022 0.0 9.0
#pdf 21 2 3.587607e-01 3.569558e-01 5000.0 1.751233e-02 1.790519e-02
</event>
<event>
4 7 1.0 5000.0 7.905138e-03 7.739137e-02
 2 -1 0 0 101   0  0.000000e+00  0.000000e+00  2.582038e+03  2.582038e+03 0.0 0.0 9.0
21 -1 0 0 103 101  0.000000e+00  0.000000e+00 -2.280192e+03  2.280192e+03 0.0 0.0 9.0
22  1 1 2   0   0  2.406480e+03  5.656121e+01  4.567943e+02  2.450103e+03 0.0 0.0 9.0
 2  1 1 2 103   0 -2.406480e+03 -5.656121e+01 -1.549482e+02  2.412126e+03 0.0022 0.0 9.0
#pdf 2 21 3.972366e-01 3.507987e-01 5000.0 1.450635e-01 1.908151e-01
</event>
<event>
4 7 1.0 5000.0 7.905138e-03 7.739137e-02
 2 -1 0 0 101   0  0.000000e+00  0.000000e+00  3.786872e+03  3.786872e+03 0.0 0.0 9.0
21 -1 0 0 103 101  0.000000e+00  0.000000e+00 -1.622158e+03  1.622158e+03 0.0 0.0 9.0
22  1 1 2   0   0 -2.080542e+03  1.762954e+02 -3.747756e+02  2.121365e+03 0.0 0.0 9.0
 2  1 1 2 103   0  2.080542e+03 -1.762954e+02  2.539490e+03  3.287665e+03 0.0022 0.0 9.0
#pdf 2 21 5.825957e-01 2.495628e-01 5000.0 3.426950e-02 3.141883e-01
</event>
<event>
4 7 1.0 5000.0 7.905138e-03 7.739137e-02
 2 -1 0 0 101   0  0.000000e+00  0.000000e+00  2.494333e+03  2.494333e+03 0.0 0.0 9.0
21 -1 0 0 103 101  0.000000e+00  0.000000e+00 -2.565549e+03  2.565549e+03 0.0 0.0 9.0
 2  1 1 2 103   0  1.586846e+03 -1.671981e+03 -1.077697e+03  2.544608e+03 0.0022 0.0 9.0
22  1 1 2   0   0 -1.586846e+03  1.671981e+03  1.006481e+03  2.515274e+03 0.0 0.0 9.0
#pdf 2 21 3.837436e-01 3.946999e-01 5000.0 1.575770e-01 1.473694e-01
</event>
<event>
4 7 1.0 5000.0 7.905138e-03 7.739137e-02
 2 -1 0 0 101   0  0.000000e+00  0.000000e+00  2.992140e+03  2.992140e+03 0.0 0.0 9.0
21 -1 0 0 103 101  0.000000e+00  0.000000e+00 -2.064989e+03  2.064989e+03 0.0 0.0 9.0
22  1 1 2   0   0 -7.752501e+02 -2.296332e+03 -9.783029e+01  2.425639e+03 0.0 0.0 9.0
 2  1 1 2 103   0  7.752501e+02  2.296332e+03  1.024982e+03  2.631490e+03 0.0022 0.0 9.0
#pdf 2 21 4.603292e-01 3.176906e-01 5000.0 9.500808e-02 2.279505e-01
</event>
<event>
4 7 1.0 5000.0 7.905138e-03 7.739137e-02
21 -1 0 0 103 101  0.000000e+00  0.000000e+00  1.920128e+03  1.920128e+03 0.0 0.0 9.0
 2 -1 0 0 101   0  0.000000e+00  0.000000e+00 -3.242905e+03  3.242905e+03 0.0 0.0 9.0
22  1 1 2   0   0 -5.185924e+02 -2.381664e+03 -1.214192e+03  2.723146e+03 0.0 0.0 9.0
 2  1 1 2 103   0  5.185924e+02  2.381664e+03 -1.085847e+02  2.439888e+03 0.0022 0.0 9.0
#pdf 21 2 2.954044e-01 4.989085e-01 5000.0 3.814277e-02 2.861298e-03
</event>
<event>
4 7 1.0 5000.0 7.905138e-03 7.739137e-02
 2 -1 0 0 101   0  0.000000e+00  0.000000e+00  2.965664e+03  2.965664e+03 0.0 0.0 9.0
21 -1 0 0 103 101  0.000000e+00  0.000000e+00 -2.608702e+03  2.608702e+03 0.0 0.0 9.0
22  1 1 2   0   0  7.864889e+02  2.541535e+02 -2.482800e+03  2.616764e+03 0.0 0.0 9.0
 2  1 1 2 103   0 -7.864889e+02 -2.541535e+02  2.839762e+03  2.957602e+03 0.0022 0.0 9.0
#pdf 2 21 4.562560e-01 4.013387e-01 5000.0 9.782884e-02 1.413809e-01
</event>
<event>
4 7 1.0 5000.0 7.905138e-03 7.739137e-02
21 -1 0 0 103 101  0.000000e+00  0.000000e+00  3.091066e+03  3.091066e+03 0.0 0.0 9.0
 2 -1 0 0 101   0  0.000000e+00  0.000000e+00 -2.030421e+03  2.030421e+03 0.0 0.0 9.0
 2  1 1 2 103   0 -1.645779e+03  1.684928e+03 -3.421697e+02  2.380053e+03 0.0022 0.0 9.0
22  1 1 2   0   0  1.645779e+03 -1.684928e+03  1.402814e+03  2.741434e+03 0.0 0.0 9.0
#pdf 21 2 4.755486e-01 3.123725e-01 5000.0 3.931634e-03 3.097302e-02
</event>
<event>
4 7 1.0 5000.0 7.905138e-03 7.739137e-02
21 -1 0 0 103 101  0.000000e+00  0.000000e+00  1.651045e+03  1.651045e+03 0.0 0.0 9.0
 2 -1 0 0 101   0  0.000000e+00  0.000000e+00 -3.697605e+03  3.697605e+03 0.0 0.0 9.0
 2  1 1 2 103   0  1.047864e+03 -2.209710e+03 -1.404537e+03  2.820206e+03 0.0022 0.0 9.0
22  1 1 2   0   0 -1.047864e+03  2.209710e+03 -6.420232e+02  2.528445e+03 0.0 0.0 9.0
#pdf 21 2 2.540070e-01 5.688624e-01 5000.0 6.350092e-02 1.042965e-03
</event>
<event>
4 7 1.0 5000.0 7.905138e-03 7.739137e-02
 2 -1 0 0 101   0  0.000000e+00  0.000000e+00  4.361980e+03  4.361980e+03 0.0 0.0 9.0
21 -1 0 0 103 101  0.000000e+00  0.000000e+00 -1.430627e+03  1.430627e+03 0.0 0.0 9.0
22  1 1 2   0   0  1.267013e+03 -9.583406e+02 -7.695090e+02  1.765187e+03 0.0 0.0 9.0
 2  1 1 2 103   0 -1.267013e+03  9.583406e+02  3.700862e+03  4.027421e+03 0.0022 0.0 9.0
#pdf 2 21 6.710739e-01 2.200965e-01 5000.0 1.303746e-02 3.542799e-01
</event>
<event>
4 7 1.0 5000.0 7.905138e-03 7.739137e-02
21 -1 0 0 103 101  0.000000e+00  0.000000e+00  2.371563e+03  2.371563e+03 0.0 0.0 9.0
 2 -1 0 0 101   0  0.000000e+00  0.000000e+00 -2.618708e+03  2.618708e+03 0.0 0.0 9.0
22  1 1 2   0   0 -2.453227e+03 -2.093690e+02  2.619600e+02  2.476042e+03 0.0 0.0 9.0
 2  1 1 2 103   0  2.453227e+03  2.093690e+02 -5.091057e+02  2.514229e+03 0.0022 0.0 9.0
#pdf 21 2 3.648558e-01 4.028782e-01 5000.0 1.624970e-02 1.010672e-02
</event>
<event>
4 7 1.0 5000.0 7.905138e-03 7.739137e-02
21 -1 0 0 103 101  0.000000e+00  0.000000e+00  3.240845e+03  3.240845e+03 0.0 0.0 9.0
 2 -1 0 0 101   0  0.000000e+00  0.000000e+00 -1.956477e+03  1.956477e+03 0.0 0.0 9.0
22  1 1 2   0   0  6.766692e+02 -2.159253e+03  1.782253e+03  2.880396e+03 0.0 0.0 9.0
 2  1 1 2 103   0 -6.766692e+02  2.159253e+03 -4.978852e+02  2.316926e+03 0.0022 0.0 9.0
#pdf 21 2 4.985916e-01 3.009965e-01 5000.0 2.873866e-03 3.558032e-02
</event>
<event>
4 7 1.0 5000.0 7.905138e-03 7.739137e-02
 2 -1 0 0 101   0  0.000000e+00  0.000000e+00  1.990544e+03  1.990544e+03 0.0 0.0 9.0
21 -1 0 0 103 101  0.000000e+00  0.000000e+00 -3.180033e+03  3.180033e+03 0.0 0.0 9.0
22  1 1 2   0   0 -7.156304e+02  7.696663e+02 -2.943677e+03  3.125659e+03 0.0 0.0 9.0
 2  1 1 2 103   0  7.156304e+02 -7.696663e+02  1.754188e+03  2.044918e+03 0.0022 0.0 9.0
#pdf 2 21 3.062376e-01 4.892358e-01 5000.0 2.415919e-01 7.661747e-02
</event>
<event>
4 7 1.0 5000.0 7.905138e-03 7.739137e-02
21 -1 0 0 103 101  0.000000e+00  0.000000e+00  4.255832e+03  4.255832e+03 0.0 0.0 9.0
 2 -1 0 0 101   0  0.000000e+00  0.000000e+00 -1.467429e+03  1.467429e+03 0.0 0.0 9.0
 2  1 1 2 103   0  1.366812e+03  1.592124e+03 -1.599701e+02  2.104430e+03 0.0022 0.0 9.0
22  1 1 2   0   0 -1.366812e+03 -1.592124e+03  2.948373e+03  3.618831e+03 0.0 0.0 9.0
#pdf 21 2 6.547434e-01 2.257583e-01 5000.0 2.548594e-04 9.036719e-02
</event>
<event>
4 7 1.0 5000.0 7.905138e-03 7.739137e-02
21 -1 0 0 103 101  0.000000e+00  0.000000e+00  2.509077e+03  2.509077e+03 0.0 0.0 9.0
 2 -1 0 0 101   0  0.000000e+00  0.000000e+00 -2.488620e+03  2.488620e+03 0.0 0.0 9.0
 2  1 1 2 103   0 -2.973723e+02  1.694303e+03  1.822713e+03  2.506267e+03 0.0022 0.0 9.0
22  1 1 2   0   0  2.973723e+02 -1.694303e+03 -1.802256e+03  2.491429e+03 0.0 0.0 9.0
#pdf 21 2 3.860118e-01 3.828646e-01 5000.0 1.249643e-02 1.300134e-02
</event>
<event>
4 7 1.0 5000.0 7.905138e-03 7.739137e-02
21 -1 0 0 103 101  0.000000e+00  0.000000e+00  2.062955e+03  2.062955e+03 0.0 0.0 9.0
 2 -1 0 0 101   0  0.000000e+00  0.000000e+00 -3.070375e+03  3.070375e+03 0.0 0.0 9.0
22  1 1 2   0   0 -1.833661e+02  5.558680e+02  1.992574e+03  2.076768e+03 0.0 0.0 9.0
 2  1 1 2 103   0  1.833661e+02 -5.558680e+02 -2.999994e+03  3.056563e+03 0.0022 0.0 9.0
#pdf 21 2 3.173778e-01 4.723654e-01 5000.0 2.911456e-02 4.103124e-03
</event>
<event>
4 7 1.0 5000.0 7.905138e-03 7.739137e-02
 2 -1 0 0 101   0  0.000000e+00  0.000000e+00  3.646801e+03  3.646801e+03 0.0 0.0 9.0
21 -1 0 0 103 101  0.000000e+00  0.000000e+00 -1.689218e+03  1.689218e+03 0.0 0.0 9.0
22  1 1 2   0   0 -1.372955e+03  9.963178e+02  2.926377e+03  3.382505e+03 0.0 0.0 9.0
 2  1 1 2 103   0  1.372955e+03 -9.963178e+02 -9.687939e+02  1.953514e+03 0.0022 0.0 9.0
#pdf 2 21 5.610463e-01 2.598797e-01 5000.0 4.197247e-02 3.004621e-01
</event>
<event>
4 7 1.0 5000.0 7.905138e-03 7.739137e-02
21 -1 0 0 103 101  0.000000e+00  0.000000e+00  2.558601e+03  2.558601e+03 0.0 0.0 9.0
 2 -1 0 0 101   0  0.000000e+00  0.000000e+00 -2.465241e+03  2.465241e+03 0.0 0.0 9.0
22  1 1 2   0   0  1.485094e+03  2.673711e+02  2.054657e+03  2.549236e+03 0.0 0.0 9.0
 2  1 1 2 103   0 -1.485094e+03 -2.673711e+02 -1.961297e+03  2.474606e+03 0.0022 0.0 9.0
#pdf 21 2 3.936309e-01 3.792679e-01 5000.0 1.135299e-02 1.359918e-02
</event>
<event>
4 7 1.0 5000.0 7.905138e-03 7.739137e-02
 2 -1 0 0 101   0  0.000000e+00  0.000000e+00  3.458091e+03  3.458091e+03 0.0 0.0 9.0
21 -1 0 0 103 101  0.000000e+00  0.000000e+00 -1.807477e+03  1.807477e+03 0.0 0.0 9.0
22  1 1 2   0   0 -2.050383e+03 -1.406877e+03  1.097984e+03  2.718261e+03 0.0 0.0 9.0
 2  1 1 2 103   0  2.050383e+03  1.406877e+03  5.526294e+02  2.547307e+03 0.0022 0.0 9.0
#pdf 2 21 5.320140e-01 2.780734e-01 5000.0 5.420675e-02 2.767407e-01
</event>
<event>
4 7 1.0 5000.0 7.905138e-03 7.739137e-02
21 -1 0 0 103 101  0.000000e+00  0.000000e+00  3.083592e+03  3.083592e+03 0.0 0.0 9.0
 2 -1 0 0 101   0  0.000000e+00  0.000000e+00 -1.975574e+03  1.975574e+03 0.0 0.0 9.0
22  1 1 2   0   0 -6.251256e+01 -2.384369e+03  1.204420e+03  2.672031e+03 0.0 0.0 9.0
 2  1 1 2 103   0  6.251256e+01  2.384369e+03 -9.640157e+01  2.387135e+03 0.0022 0.0 9.0
#pdf 21 2 4.743988e-01 3.039345e-01 5000.0 3.992834e-03 3.435221e-02
</event>
<event>
4 7 1.0 5000.0 7.905138e-03 7.739137e-02
21 -1 0 0 103 101  0.000000e+00  0.000000e+00  2.686328e+03  2.686328e+03 0.0 0.0 9.0
 2 -1 0 0 101   0  0.000000e+00  0.000000e+00 -2.366195e+03  2.366195e+03 0.0 0.0 9.0
 2  1 1 2 103   0  6.318937e+02 -7.976679e+02 -2.151266e+03  2.379813e+03 0.0022 0.0 9.0
22  1 1 2   0   0 -6.318937e+02  7.976679e+02  2.471399e+03  2.672709e+03 0.0 0.0 9.0
#pdf 21 2 4.132812e-01 3.640300e-01 5000.0 8.856182e-03 1.641646e-02
</event>
<event>
4 7 1.0 5000.0 7.905138e-03 7.739137e-02
 2 -1 0 0 101   0  0.000000e+00  0.000000e+00  2.370930e+03  2.370930e+03 0.0 0.0 9.0
21 -1 0 0 103 101  0.000000e+00  0.000000e+00 -2.385155e+03  2.385155e+03 0.0 0.0 9.0
 2  1 1 2 103   0  1.694159e+03 -3.076891e+02  1.633074e+03  2.373137e+03 0.0022 0.0 9.0
22  1 1 2   0   0 -1.694159e+03  3.076891e+02 -1.647299e+03  2.382948e+03 0.0 0.0 9.0
#pdf 2 21 3.647584e-01 3.669469e-01 5000.0 1.762624e-01 1.740402e-01
</event>
<event>
4 7 1.0 5000.0 7.905138e-03 7.739137e-02
21 -1 0 0 103 101  0.000000e+00  0.000000e+00  2.317931e+03  2.317931e+03 0.0 0.0 9.0
 2 -1 0 0 101   0  0.000000e+00  0.000000e+00 -2.725552e+03  2.725552e+03 0.0 0.0 9.0
 2  1 1 2 103   0 -1.420277e+03 -8.281161e+02 -2.111281e+03  2.675906e+03 0.0022 0.0 9.0
22  1 1 2   0   0  1.420277e+03  8.281161e+02  1.703660e+03  2.367577e+03 0.0 0.0 9.0
#pdf 21 2 3.566048e-01 4.193157e-01 5000.0 1.798293e-02 8.201548e-03
</event>
<event>
4 7 1.0 5000.0 7.905138e-03 7.739137e-02
21 -1 0 0 103 101  0.000000e+00  0.000000e+00  2.341283e+03  2.341283e+03 0.0 0.0 9.0
 2 -1 0 0 101   0  0.000000e+00  0.000000e+00 -2.861940e+03  2.861940e+03 0.0 0.0 9.0
22  1 1 2   0   0 -1.742058e+03 -1.913830e+03 -3.163123e+02  2.607213e+03 0.0 0.0 9.0
 2  1 1 2 103   0  1.742058e+03  1.913830e+03 -2.043452e+02  2.596009e+03 0.0022 0.0 9.0
#pdf 21 2 3.601973e-01 4.402985e-01 5000.0 1.720687e-02 6.266168e-03
</event>
<event>
4 7 1.0 5000.0 7.905138e-03 7.739137e-02
21 -1 0 0 103 101  0.000000e+00  0.000000e+00  2.524564e+03  2.524564e+03 0.0 0.0 9.0
 2 -1 0 0 101   0  0.000000e+00  0.000000e+00 -2.139421e+03  2.139421e+03 0.0 0.0 9.0
 2  1 1 2 103   0 -2.238551e+02 -2.262182e+03  6.774761e+02  2.372035e+03 0.0022 0.0 9.0
22  1 1 2   0   0  2.238551e+02  2.262182e+03 -2.923329e+02  2.291950e+03 0.0 0.0 9.0
#pdf 21 2 3.883945e-01 3.291417e-01 5000.0 1.212647e-02 2.520975e-02
</event>
<event>
4 7 1.0 5000.0 7.905138e-03 7.739137e-02
21 -1 0 0 103 101  0.000000e+00  0.000000e+00  2.280471e+03  2.280471e+03 0.0 0.0 9.0
 2 -1 0 0 101   0  0.000000e+00  0.000000e+00 -2.559116e+03  2.559116e+03 0.0 0.0 9.0
22  1 1 2   0   0  2.360064e+03 -5.158366e+02 -1.385588e+02  2.419750e+03 0.0 0.0 9.0
 2  1 1 2 103   0 -2.360064e+03  5.158366e+02 -1.400866e+02  2.419838e+03 0.0022 0.0 9.0
#pdf 21 2 3.508417e-01 3.937102e-01 5000.0 1.931808e-02 1.134168e-02
</event>
<event>
4 7 1.0 5000.0 7.905138e-03 7.739137e-02
 2 -1 0 0 101   0  0.000000e+00  0.000000e+00  2.527864e+03  2.527864e+03 0.0 0.0 9.0
21 -1 0 0 103 101  0.000000e+00  0.000000e+00 -2.502140e+03  2.502140e+03 0.0 0.0 9.0
22  1 1 2   0   0 -1.235616e+03 -1.926281e+02 -2.169188e+03  2.503843e+03 0.0 0.0 9.0
 2  1 1 2 103   0  1.235616e+03  1.926281e+02  2.194912e+03  2.526161e+03 0.0022 0.0 9.0
#pdf 2 21 3.889022e-01 3.849446e-01 5000.0 1.527179e-01 1.564371e-01
</event>
<event>
4 7 1.0 5000.0 7.905138e-03 7.739137e-02
21 -1 0 0 103 101  0.000000e+00  0.000000e+00  2.183464e+03  2.183464e+03 0.0 0.0 9.0
 2 -1 0 0 101   0  0.000000e+00  0.000000e+00 -2.905211e+03  2.905211e+03 0.0 0.0 9.0
 2  1 1 2 103   0 -2.210146e+03 -9.507892e+02 -1.113248e+03  2.651050e+03 0.0022 0.0 9.0
22  1 1 2   0   0  2.210146e+03  9.507892e+02  3.915008e+02  2.437625e+03 0.0 0.0 9.0
#pdf 21 2 3.359176e-01 4.469556e-01 5000.0 2.319780e-02 5.737128e-03
</event>
<event>
4 7 1.0 5000.0 7.905138e-03 7.739137e-02
 2 -1 0 0 101   0  0.000000e+00  0.000000e+00  4.013150e+03  4.013150e+03 0.0 0.0 9.0
21 -1 0 0 103 101  0.000000e+00  0.000000e+00 -1.301744e+03  1.301744e+03 0.0 0.0 9.0
22  1 1 2   0   0  1.726028e+03  1.186836e+03  2.418991e+03  3.199886e+03 0.0 0.0 9.0
 2  1 1 2 103   0 -1.726028e+03 -1.186836e+03  2.924148e+02  2.115008e+03 0.0022 0.0 9.0
#pdf 2 21 6.174077e-01 2.002684e-01 5000.0 2.410942e-02 3.816566e-01
</event>
<event>
4 7 1.0 5000.0 7.905138e-03 7.739137e-02
21 -1 0 0 103 101  0.000000e+00  0.000000e+00  3.563497e+03  3.563497e+03 0.0 0.0 9.0
 2 -1 0 0 101   0  0.000000e+00  0.000000e+00 -1.715371e+03  1.715371e+03 0.0 0.0 9.0
22  1 1 2   0   0  6.807038e+02  1.224786e+03 -1.250535e+03  1.878110e+03 0.0 0.0 9.0
 2  1 1 2 103   0 -6.807038e+02 -1.224786e+03  3.098661e+03  3.400758e+03 0.0022 0.0 9.0
#pdf 21 2 5.482302e-01 2.639033e-01 5000.0 1.418777e-03 5.611177e-02
</event>
<event>
4 7 1.0 5000.0 7.905138e-03 7.739137e-02
21 -1 0 0 103 101  0.000000e+00  0.000000e+00  1.930205e+03  1.930205e+03 0.0 0.0 9.0
 2 -1 0 0 101   0  0.000000e+00  0.000000e+00 -3.249713e+03  3.249713e+03 0.0 0.0 9.0
22  1 1 2   0   0 -1.601343e+03 -1.215614e+03 -2.204223e+03  2.983390e+03 0.0 0.0 9.0
 2  1 1 2 103   0  1.601343e+03  1.215614e+03  8.847150e+02  2.196528e+03 0.0022 0.0 9.0
#pdf 21 2 2.969546e-01 4.999559e-01 5000.0 3.741784e-02 2.820076e-03
</event>
<event>
4 7 1.0 5000.0 7.905138e-03 7.739137e-02
21 -1 0 0 103 101  0.000000e+00  0.000000e+00  1.969472e+03  1.969472e+03 0.0 0.0 9.0
 2 -1 0 0 101   0  0.000000e+00  0.000000e+00 -3.133227e+03  3.133227e+03 0.0 0.0 9.0
 2  1 1 2 103   0 -6.942069e+02  8.019353e+01 -3.030191e+03  3.109728e+03 0.0022 0.0 9.0
22  1 1 2   0   0  6.942069e+02 -8.019353e+01  1.866436e+03  1.992972e+03 0.0 0.0 9.0
#pdf 21 2 3.029958e-01 4.820350e-01 5000.0 3.474242e-02 3.601501e-03
</event>
<event>
4 7 1.0 5000.0 7.905138e-03 7.739137e-02
 2 -1 0 0 101   0  0.000000e+00  0.000000e+00  4.769418e+03  4.769418e+03 0.0 0.0 9.0
21 -1 0 0 103 101  0.000000e+00  0.000000e+00 -9.783396e+02  9.783396e+02 0.0 0.0 9.0
 2  1 1 2 103   0 -1.883611e+03 -6.293978e+02  7.650861e+02  2.128260e+03 0.0022 0.0 9.0
22  1 1 2   0   0  1.883611e+03  6.293978e+02  3.025992e+03  3.619497e+03 0.0 0.0 9.0
#pdf 2 21 7.337565e-01 1.505138e-01 5000.0 5.492363e-03 4.490915e-01
</event>
<event>
4 7 1.0 5000.0 7.905138e-03 7.739137e-02
21 -1 0 0 103 101  0.000000e+00  0.000000e+00  2.403381e+03  2.403381e+03 0.0 0.0 9.0
 2 -1 0 0 101   0  0.000000e+00  0.000000e+00 -2.644117e+03  2.644117e+03 0.0 0.0 9.0
 2  1 1 2 103   0  9.627951e+02 -3.468458e+02 -2.426803e+03  2.633752e+03 0.0022 0.0 9.0
22  1 1 2   0   0 -9.627951e+02  3.468458e+02  2.186068e+03  2.413746e+03 0.0 0.0 9.0
#pdf 21 2 3.697509e-01 4.067872e-01 5000.0 1.528298e-02 9.619174e-03
</event>
<event>
4 7 1.0 5000.0 7.905138e-03 7.739137e-02
 2 -1 0 0 101   0  0.000000e+00  0.000000e+00  1.621407e+03  1.621407e+03 0.0 0.0 9.0
21 -1 0 0 103 101  0.000000e+00  0.000000e+00 -3.786748e+03  3.786748e+03 0.0 0.0 9.0
22  1 1 2   0   0 -2.431395e+03  1.569151e+02 -1.575026e+03  2.901209e+03 0.0 0.0 9.0
 2  1 1 2 103   0  2.431395e+03 -1.569151e+02 -5.903149e+02  2.506946e+03 0.0022 0.0 9.0
#pdf 2 21 2.494472e-01 5.825766e-01 5000.0 3.143440e-01 3.427583e-02
</event>
<event>
4 7 1.0 5000.0 7.905138e-03 7.739137e-02
 2 -1 0 0 101   0  0.000000e+00  0.000000e+00  2.240561e+03  2.240561e+03 0.0 0.0 9.0
21 -1 0 0 103 101  0.000000e+00  0.000000e+00 -2.283206e+03  2.283206e+03 0.0 0.0 9.0
22  1 1 2   0   0 -9.998698e+02 -4.641715e+02  1.953725e+03  2.243265e+03 0.0 0.0 9.0
 2  1 1 2 103   0  9.998698e+02  4.641715e+02 -1.996371e+03  2.280502e+03 0.0022 0.0 9.0
#pdf 2 21 3.447016e-01 3.512625e-01 5000.0 1.973843e-01 1.903207e-01
</event>
<event>
4 7 1.0 5000.0 7.905138e-03 7.739137e-02
 2 -1 0 0 101   0  0.000000e+00  0.000000e+00  2.781153e+03  2.781153e+03 0.0 0.0 9.0
21 -1 0 0 103 101  0.000000e+00  0.000000e+00 -2.054031e+03  2.054031e+03 0.0 0.0 9.0
 2  1 1 2 103   0 -1.789232e+03 -9.198141e+02  1.668818e+03  2.613879e+03 0.0022 0.0 9.0
22  1 1 2   0   0  1.789232e+03  9.198141e+02 -9.416952e+02  2.221305e+03 0.0 0.0 9.0
#pdf 2 21 4.278697e-01 3.160047e-01 5000.0 1.190171e-01 2.299326e-01
</event>
<event>
4 7 1.0 5000.0 7.905138e-03 7.739137e-02
 2 -1 0 0 101   0  0.000000e+00  0.000000e+00  3.810575e+03  3.810575e+03 0.0 0.0 9.0
21 -1 0 0 103 101  0.000000e+00  0.000000e+00 -1.735097e+03  1.735097e+03 0.0 0.0 9.0
22  1 1 2   0   0  1.308328e+02 -2.155023e+03 -4.683028e+02  2.209197e+03 0.0 0.0 9.0
 2  1 1 2 103   0 -1.308328e+02  2.155023e+03  2.543782e+03  3.336475e+03 0.0022 0.0 9.0
#pdf 2 21 5.862424e-01 2.669379e-01 5000.0 3.307923e-02 2.911875e-01
</event>
<event>
4 7 1.0 5000.0 7.905138e-03 7.739137e-02
 2 -1 0 0 101   0  0.000000e+00  0.000000e+00  2.315588e+03  2.315588e+03 0.0 0.0 9.0
21 -1 0 0 103 101  0.000000e+00  0.000000e+00 -2.521888e+03  2.521888e+03 0.0 0.0 9.0
 2  1 1 2 103   0  8.210664e+02 -3.624608e+02  2.142579e+03  2.322966e+03 0.0022 0.0 9.0
22  1 1 2   0   0 -8.210664e+02  3.624608e+02 -2.348879e+03  2.514510e+03 0.0 0.0 9.0
#pdf 2 21 3.562443e-01 3.879828e-01 5000.0 1.850588e-01 1.535767e-01
</event>
<event>
4 7 1.0 5000.0 7.905138e-03 7.739137e-02
21 -1 0 0 103 101  0.000000e+00  0.000000e+00  2.568806e+03  2.568806e+03 0.0 0.0 9.0
 2 -1 0 0 101   0  0.000000e+00  0.000000e+00 -2.393461e+03  2.393461e+03 0.0 0.0 9.0
22  1 1 2   0   0  1.236677e+03 -2.137195e+03  3.144474e+02  2.489146e+03 0.0 0.0 9.0
 2  1 1 2 103   0 -1.236677e+03  2.137195e+03 -1.391029e+02  2.473120e+03 0.0022 0.0 9.0
#pdf 21 2 3.952009e-01 3.682248e-01 5000.0 1.113125e-02 1.557797e-02
</event>
<event>
4 7 1.0 5000.0 7.905138e-03 7.739137e-02
 2 -1 0 0 101   0  0.000000e+00  0.000000e+00  2.057190e+03  2.057190e+03 0.0 0.0 9.0
21 -1 0 0 103 101  0.000000e+00  0.000000e+00 -3.040369e+03  3.040369e+03 0.0 0.0 9.0
22  1 1 2   0   0  3.890948e+02  2.384337e+03 -1.150615e+03  2.675888e+03 0.0 0.0 9.0
 2  1 1 2 103   0 -3.890948e+02 -2.384337e+03  1.674361e+02  2.421672e+03 0.0022 0.0 9.0
#pdf 2 21 3.164907e-01 4.677491e-01 5000.0 2.293603e-01 9.003128e-02
</event>
<event>
4 7 1.0 5000.0 7.905138e-03 7.739137e-02
21 -1 0 0 103 101  0.000000e+00  0.000000e+00  1.846891e+03  1.846891e+03 0.0 0.0 9.0
 2 -1 0 0 101   0  0.000000e+00  0.000000e+00 -3.392247e+03  3.392247e+03 0.0 0.0 9.0
 2  1 1 2 103   0 -7.937032e+02  1.716497e+03  9.434248e+02  2.113380e+03 0.0022 0.0 9.0
22  1 1 2   0   0  7.937032e+02 -1.716497e+03 -2.488781e+03  3.125757e+03 0.0 0.0 9.0
#pdf 21 2 2.841370e-01 5.218841e-01 5000.0 4.374207e-02 2.075633e-03
</event>
<event>
4 7 1.0 5000.0 7.905138e-03 7.739137e-02
 2 -1 0 0 101   0  0.000000e+00  0.000000e+00  2.305284e+03  2.305284e+03 0.0 0.0 9.0
21 -1 0 0 103 101  0.000000e+00  0.000000e+00 -2.957837e+03  2.957837e+03 0.0 0.0 9.0
22  1 1 2   0   0  1.338621e+03  1.403848e+03 -2.088000e+03  2.849989e+03 0.0 0.0 9.0
 2  1 1 2 103   0 -1.338621e+03 -1.403848e+03  1.435447e+03  2.413131e+03 0.0022 0.0 9.0
#pdf 2 21 3.546590e-01 4.550519e-01 5000.0 1.867236e-01 9.867365e-02
</event>
<event>
4 7 1.0 5000.0 7.905138e-03 7.739137e-02
 2 -1 0 0 101   0  0.000000e+00  0.000000e+00  4.049540e+03  4.049540e+03 0.0 0.0 9.0
21 -1 0 0 103 101  0.000000e+00  0.000000e+00 -1.554054e+03  1.554054e+03 0.0 0.0 9.0
 2  1 1 2 103   0  2.142856e+03 -1.028184e+03  2.144167e+03  3.201007e+03 0.0022 0.0 9.0
22  1 1 2   0   0 -2.142856e+03  1.028184e+03  3.513195e+02  2.402586e+03 0.0 0.0 9.0
#pdf 2 21 6.230061e-01 2.390852e-01 5000.0 2.271034e-02 3.283076e-01
</event>
<event>
4 7 1.0 5000.0 7.905138e-03 7.739137e-02
 2 -1 0 0 101   0  0.000000e+00  0.000000e+00  2.772410e+03  2.772410e+03 0.0 0.0 9.0
21 -1 0 0 103 101  0.000000e+00  0.000000e+00 -2.287772e+03  2.287772e+03 0.0 0.0 9.0
22  1 1 2   0   0  7.308091e+02 -5.617648e+02 -2.112215e+03  2.304585e+03 0.0 0.0 9.0
 2  1 1 2 103   0 -7.308091e+02  5.617648e+02  2.596854e+03  2.755596e+03 0.0022 0.0 9.0
#pdf 2 21 4.265247e-01 3.519649e-01 5000.0 1.200899e-01 1.895735e-01
</event>
<event>
4 7 1.0 5000.0 7.905138e-03 7.739137e-02
 2 -1 0 0 101   0  0.000000e+00  0.000000e+00  2.949151e+03  2.949151e+03 0.0 0.0 9.0
21 -1 0 0 103 101  0.000000e+00  0.000000e+00 -1.986849e+03  1.986849e+03 0.0 0.0 9.0
22  1 1 2   0   0  1.309044e+03  3.487545e+02 -1.564158e+03  2.069255e+03 0.0 0.0 9.0
 2  1 1 2 103   0 -1.309044e+03 -3.487545e+02  2.526460e+03  2.866745e+03 0.0022 0.0 9.0
#pdf 2 21 4.537155e-01 3.056690e-01 5000.0 9.961626e-02 2.422802e-01
</event>
<event>
4 7 1.0 5000.0 7.905138e-03 7.739137e-02
21 -1 0 0 103 101  0.000000e+00  0.000000e+00  2.144589e+03  2.144589e+03 0.0 0.0 9.0
 2 -1 0 0 101   0  0.000000e+00  0.000000e+00 -3.052826e+03  3.052826e+03 0.0 0.0 9.0
22  1 1 2   0   0 -3.026988e+02  2.321365e+03 -1.503068e+03  2.782009e+03 0.0 0.0 9.0
 2  1 1 2 103   0  3.026988e+02 -2.321365e+03  5.948316e+02  2.415406e+03 0.0022 0.0 9.0
#pdf 21 2 3.299368e-01 4.696655e-01 5000.0 2.496557e-02 4.253706e-03
</event>
<event>
4 7 1.0 5000.0 7.905138e-03 7.739137e-02
 2 -1 0 0 101   0  0.000000e+00  0.000000e+00  2.126943e+03  2.126943e+03 0.0 0.0 9.0
21 -1 0 0 103 101  0.000000e+00  0.000000e+00 -3.039939e+03  3.039939e+03 0.0 0.0 9.0
 2  1 1 2 103   0  1.105344e+02 -1.567012e+03 -2.487973e+03  2.942406e+03 0.0022 0.0 9.0
22  1 1 2   0   0 -1.105344e+02  1.567012e+03  1.574977e+03  2.224476e+03 0.0 0.0 9.0
#pdf 2 21 3.272220e-01 4.676830e-01 5000.0 2.168943e-01 9.007487e-02
</event>
<event>
4 7 1.0 5000.0 7.905138e-03 7.739137e-02
 2 -1 0 0 101   0  0.000000e+00  0.000000e+00  2.493630e+03  2.493630e+03 0.0 0.0 9.0
21 -1 0 0 103 101  0.000000e+00  0.000000e+00 -2.370751e+03  2.370751e+03 0.0 0.0 9.0
 2  1 1 2 103   0 -1.037087e+03 -9.304443e+01  2.259313e+03  2.487711e+03 0.0022 0.0 9.0
22  1 1 2   0   0  1.037087e+03  9.304443e+01 -2.136434e+03  2.376670e+03 0.0 0.0 9.0
#pdf 2 21 3.836353e-01 3.647309e-01 5000.0 1.576800e-01 1.762904e-01
</event>
<event>
4 7 1.0 5000.0 7.905138e-03 7.739137e-02
 2 -1 0 0 101   0  0.000000e+00  0.000000e+00  2.625108e+03  2.625108e+03 0.0 0.0 9.0
21 -1 0 0 103 101  0.000000e+00  0.000000e+00 -2.699377e+03  2.699377e+03 0.0 0.0 9.0
22  1 1 2   0   0  1.867189e+03  9.092287e+02  1.628279e+03  2.639012e+03 0.0 0.0 9.0
 2  1 1 2 103   0 -1.867189e+03 -9.092287e+02 -1.702549e+03  2.685473e+03 0.0022 0.0 9.0
#pdf 2 21 4.038627e-01 4.152888e-01 5000.0 1.391447e-01 1.293119e-01
</event>
<event>
4 7 1.0 5000.0 7.905138e-03 7.739137e-02
 2 -1 0 0 101   0  0.000000e+00  0.000000e+00  2.466416e+03  2.466416e+03 0.0 0.0 9.0
21 -1 0 0 103 101  0.000000e+00  0.000000e+00 -2.429093e+03  2.429093e+03 0.0 0.0 9.0
22  1 1 2   0   0 -1.596796e+02 -2.372658e+03  5.984646e+02  2.452175e+03 0.0 0.0 9.0
 2  1 1 2 103   0  1.596796e+02  2.372658e+03 -5.611410e+02  2.443334e+03 0.0022 0.0 9.0
#pdf 2 21 3.794486e-01 3.737066e-01 5000.0 1.616940e-01 1.672920e-01
</event>
<event>
4 7 1.0 5000.0 7.905138e-03 7.739137e-02
21 -1 0 0 103 101  0.000000e+00  0.000000e+00  2.778938e+03  2.778938e+03 0.0 0.0 9.0
 2 -1 0 0 101   0  0.000000e+00  0.000000e+00 -2.232562e+03  2.232562e+03 0.0 0.0 9.0
 2  1 1 2 103   0  2.144081e+02 -1.551352e+03 -1.675302e+03  2.293316e+03 0.0022 0.0 9.0
22  1 1 2   0   0 -2.144081e+02  1.551352e+03  2.221678e+03  2.718183e+03 0.0 0.0 9.0
#pdf 21 2 4.275288e-01 3.434710e-01 5000.0 7.381612e-03 2.114588e-02
</event>
<event>
4 7 1.0 5000.0 7.905138e-03 7.739137e-02
21 -1 0 0 103 101  0.000000e+00  0.000000e+00  2.218268e+03  2.218268e+03 0.0 0.0 9.0
 2 -1 0 0 101   0  0.000000e+00  0.000000e+00 -2.825321e+03  2.825321e+03 0.0 0.0 9.0
22  1 1 2   0   0  3.018562e+02 -1.182273e+03 -2.505497e+03  2.786827e+03 0.0 0.0 9.0
 2  1 1 2 103   0 -3.018562e+02  1.182273e+03  1.898443e+03  2.256762e+03 0.0022 0.0 9.0
#pdf 21 2 3.412719e-01 4.346648e-01 5000.0 2.172209e-02 6.737406e-03
</event>
<event>
4 7 1.0 5000.0 7.905138e-03 7.739137e-02
 2 -1 0 0 101   0  0.000000e+00  0.000000e+00  2.640604e+03  2.640604e+03 0.0 0.0 9.0
21 -1 0 0 103 101  0.000000e+00  0.000000e+00 -2.380961e+03  2.380961e+03 0.0 0.0 9.0
22  1 1 2   0   0 -7.009476e+02 -5.832569e+02  2.468685e+03  2.631714e+03 0.0 0.0 9.0
 2  1 1 2 103   0  7.009476e+02  5.832569e+02 -2.209042e+03  2.389850e+03 0.0022 0.0 9.0
#pdf 2 21 4.062467e-01 3.663017e-01 5000.0 1.370542e-01 1.746937e-01
</event>
<event>
4 7 1.0 5000.0 7.905138e-03 7.739137e-02
21 -1 0 0 103 101  0.000000e+00  0.000000e+00  2.719673e+03  2.719673e+03 0.0 0.0 9.0
 2 -1 0 0 101   0  0.000000e+00  0.000000e+00 -2.297156e+03  2.297156e+03 0.0 0.0 9.0
22  1 1 2   0   0  2.968438e+02 -7.070237e+02 -2.176197e+03  2.307343e+03 0.0 0.0 9.0
 2  1 1 2 103   0 -2.968438e+02  7.070237e+02  2.598714e+03  2.709485e+03 0.0022 0.0 9.0
#pdf 21 2 4.184112e-01 3.534086e-01 5000.0 8.296621e-03 1.871256e-02
</event>
<event>
4 7 1.0 5000.0 7.905138e-03 7.739137e-02
21 -1 0 0 103 101  0.000000e+00  0.000000e+00  2.617573e+03  2.617573e+03 0.0 0.0 9.0
 2 -1 0 0 101   0  0.000000e+00  0.000000e+00 -2.403881e+03  2.403881e+03 0.0 0.0 9.0
 2  1 1 2 103   0 -1.967227e+03 -1.466131e+03  6.296355e+02  2.532975e+03 0.0022 0.0 9.0
22  1 1 2   0   0  1.967227e+03  1.466131e+03 -4.159435e+02  2.488479e+03 0.0 0.0 9.0
#pdf 21 2 4.027035e-01 3.698278e-01 5000.0 1.012901e-02 1.526836e-02
</event>
<event>
4 7 1.0 5000.0 7.905138e-03 7.739137e-02
21 -1 0 0 103 101  0.000000e+00  0.000000e+00  1.922123e+03  1.922123e+03 0.0 0.0 9.0
 2 -1 0 0 101   0  0.000000e+00  0.000000e+00 -3.222056e+03  3.222056e+03 0.0 0.0 9.0
22  1 1 2   0   0 -3.616457e+02 -9.665596e+02 -2.990473e+03  3.163535e+03 0.0 0.0 9.0
 2  1 1 2 103   0  3.616457e+02  9.665596e+02  1.690540e+03  1.980644e+03 0.0022 0.0 9.0
#pdf 21 2 2.957113e-01 4.957009e-01 5000.0 3.799872e-02 2.990525e-03
</event>
<event>
4 7 1.0 5000.0 7.905138e-03 7.739137e-02
 2 -1 0 0 101   0  0.000000e+00  0.000000e+00  1.847552e+03  1.847552e+03 0.0 0.0 9.0
21 -1 0 0 103 101  0.000000e+00  0.000000e+00 -3.328393e+03  3.328393e+03 0.0 0.0 9.0
22  1 1 2   0   0 -9.448585e+02 -1.796705e+03 -2.226796e+03  3.013226e+03 0.0 0.0 9.0
 2  1 1 2 103   0  9.448585e+02  1.796705e+03  7.459547e+02  2.162719e+03 0.0022 0.0 9.0
#pdf 2 21 2.842387e-01 5.120605e-01 5000.0 2.688774e-01 6.397460e-02
</event>
<event>
4 7 1.0 5000.0 7.905138e-03 7.739137e-02
21 -1 0 0 103 101  0.000000e+00  0.000000e+00  1.557331e+03  1.557331e+03 0.0 0.0 9.0
 2 -1 0 0 101   0  0.000000e+00  0.000000e+00 -4.032683e+03  4.032683e+03 0.0 0.0 9.0
22  1 1 2   0   0 -2.282348e+03 -1.034874e+03 -1.224285e+03  2.789077e+03 0.0 0.0 9.0
 2  1 1 2 103   0  2.282348e+03  1.034874e+03 -1.251068e+03  2.800937e+03 0.0022 0.0 9.0
#pdf 21 2 2.395893e-01 6.204128e-01 5000.0 7.600688e-02 4.602548e-04
</event>
<event>
4 7 1.0 5000.0 7.905138e-03 7.739137e-02
21 -1 0 0 103 101  0.000000e+00  0.000000e+00  3.115470e+03  3.115470e+03 0.0 0.0 9.0
 2 -1 0 0 101   0  0.000000e+00  0.000000e+00 -1.954895e+03  1.954895e+03 0.0 0.0 9.0
 2  1 1 2 103   0  1.716202e+03 -7.979631e+01  2.400242e+03  2.951758e+03 0.0022 0.0 9.0
22  1 1 2   0   0 -1.716202e+03  7.979631e+01 -1.239667e+03  2.118606e+03 0.0 0.0 9.0
#pdf 21 2 4.793030e-01 3.007530e-01 5000.0 3.737467e-03 3.568291e-02
</event>
<event>
4 7 1.0 5000.0 7.905138e-03 7.739137e-02
 2 -1 0 0 101   0  0.000000e+00  0.000000e+00  1.559614e+03  1.559614e+03 0.0 0.0 9.0
21 -1 0 0 103 101  0.000000e+00  0.000000e+00 -3.989579e+03  3.989579e+03 0.0 0.0 9.0
 2  1 1 2 103   0 -4.850426e+02 -9.325718e+02  1.301222e+03  1.672763e+03 0.0022 0.0 9.0
22  1 1 2   0   0  4.850426e+02  9.325718e+02 -3.731187e+03  3.876430e+03 0.0 0.0 9.0
#pdf 2 21 2.399407e-01 6.137813e-01 5000.0 3.271475e-01 2.504869e-02
</event>
<event>
4 7 1.0 5000.0 7.905138e-03 7.739137e-02
 2 -1 0 0 101   0  0.000000e+00  0.000000e+00  2.021998e+03  2.021998e+03 0.0 0.0 9.0
21 -1 0 0 103 101  0.000000e+00  0.000000e+00 -3.050796e+03  3.050796e+03 0.0 0.0 9.0
 2  1 1 2 103   0  1.269151e+03  1.994060e+03  2.644684e+02  2.378437e+03 0.0022 0.0 9.0
22  1 1 2   0   0 -1.269151e+03 -1.994060e+03 -1.293267e+03  2.694357e+03 0.0 0.0 9.0
#pdf 2 21 3.110766e-01 4.693533e-01 5000.0 2.357771e-01 8.897818e-02
</event>
<event>
4 7 1.0 5000.0 7.905138e-03 7.739137e-02
21 -1 0 0 103 101  0.000000e+00  0.000000e+00  2.078389e+03  2.078389e+03 0.0 0.0 9.0
 2 -1 0 0 101   0  0.000000e+00  0.000000e+00 -3.113177e+03  3.113177e+03 0.0 0.0 9.0
 2  1 1 2 103   0  1.777853e+03 -1.733506e+03 -1.080589e+03  2.708039e+03 0.0022 0.0 9.0
22  1 1 2   0   0 -1.777853e+03  1.733506e+03  4.580131e+01  2.483526e+03 0.0 0.0 9.0
#pdf 21 2 3.197522e-01 4.789503e-01 5000.0 2.827865e-02 3.755347e-03
</event>
<event>
4 7 1.0 5000.0 7.905138e-03 7.739137e-02
21 -1 0 0 103 101  0.000000e+00  0.000000e+00  2.983279e+03  2.983279e+03 0.0 0.0 9.0
 2 -1 0 0 101   0  0.000000e+00  0.000000e+00 -2.093064e+03  2.093064e+03 0.0 0.0 9.0
22  1 1 2   0   0  1.190551e+03  2.195871e+03  3.737514e+02  2.525658e+03 0.0 0.0 9.0
 2  1 1 2 103   0 -1.190551e+03 -2.195871e+03  5.164638e+02  2.550685e+03 0.0022 0.0 9.0
#pdf 21 2 4.589661e-01 3.220099e-01 5000.0 4.902608e-03 2.750753e-02
</event>
<event>
4 7 1.0 5000.0 7.905138e-03 7.739137e-02
21 -1 0 0 103 101  0.000000e+00  0.000000e+00  2.382908e+03  2.382908e+03 0.0 0.0 9.0
 2 -1 0 0 101   0  0.000000e+00  0.000000e+00 -2.677773e+03  2.677773e+03 0.0 0.0 9.0
22  1 1 2   0   0  1.456467e+03  9.375279e+02 -1.989212e+03  2.637654e+03 0.0 0.0 9.0
 2  1 1 2 103   0 -1.456467e+03 -9.375279e+02  1.694347e+03  2.423028e+03 0.0022 0.0 9.0
#pdf 21 2 3.666013e-01 4.119651e-01 5000.0 1.590000e-02 9.005682e-03
</event>
<event>
4 7 1.0 5000.0 7.905138e-03 7.739137e-02
21 -1 0 0 103 101  0.000000e+00  0.000000e+00  2.464609e+03  2.464609e+03 0.0 0.0 9.0
 2 -1 0 0 101   0  0.000000e+00  0.000000e+00 -1.922315e+03  1.922315e+03 0.0 0.0 9.0
 2  1 1 2 103   0  1.969536e+03  4.416722e+02  1.092065e+03  2.294941e+03 0.0022 0.0 9.0
22  1 1 2   0   0 -1.969536e+03 -4.416722e+02 -5.497701e+02  2.091984e+03 0.0 0.0 9.0
#pdf 21 2 3.791707e-01 2.957408e-01 5000.0 1.361562e-02 3.798489e-02
</event>
<event>
4 7 1.0 5000.0 7.905138e-03 7.739137e-02
21 -1 0 0 103 101  0.000000e+00  0.000000e+00  1.617594e+03  1.617594e+03 0.0 0.0 9.0
 2 -1 0 0 101   0  0.000000e+00  0.000000e+00 -3.826728e+03  3.826728e+03 0.0 0.0 9.0
22  1 1 2   0   0 -6.198805e+02  2.090498e+03  2.063971e+02  2.190213e+03 0.0 0.0 9.0
 2  1 1 2 103   0  6.198805e+02 -2.090498e+03 -2.415531e+03  3.254109e+03 0.0022 0.0 9.0
#pdf 21 2 2.488606e-01 5.887274e-01 5000.0 6.767587e-02 7.673242e-04
</event>
<event>
4 7 1.0 5000.0 7.905138e-03 7.739137e-02
 2 -1 0 0 101   0  0.000000e+00  0.000000e+00  1.566314e+03  1.566314e+03 0.0 0.0 9.0
21 -1 0 0 103 101  0.000000e+00  0.000000e+00 -4.011578e+03  4.011578e+03 0.0 0.0 9.0
22  1 1 2   0   0  2.316228e+03 -9.568896e+02 -1.281956e+03  2.814953e+03 0.0 0.0 9.0
 2  1 1 2 103   0 -2.316228e+03  9.568896e+02 -1.163308e+03  2.762940e+03 0.0022 0.0 9.0
#pdf 2 21 2.409715e-01 6.171659e-01 5000.0 3.257534e-01 2.417122e-02
</event>
<event>
4 7 1.0 5000.0 7.905138e-03 7.739137e-02
21 -1 0 0 103 101  0.000000e+00  0.000000e+00  2.889933e+03  2.889933e+03 0.0 0.0 9.0
 2 -1 0 0 101   0  0.000000e+00  0.000000e+00 -2.217266e+03  2.217266e+03 0.0 0.0 9.0
 2  1 1 2 103   0 -7.835452e+02 -2.013056e+03 -9.948895e+02  2.378265e+03 0.0022 0.0 9.0
22  1 1 2   0   0  7.835452e+02  2.013056e+03  1.667556e+03  2.728934e+03 0.0 0.0 9.0
#pdf 21 2 4.446051e-01 3.411179e-01 5000.0 5.919249e-03 2.176307e-02
</event>
<event>
4 7 1.0 5000.0 7.905138e-03 7.739137e-02
 2 -1 0 0 101   0  0.000000e+00  0.000000e+00  3.472644e+03  3.472644e+03 0.0 0.0 9.0
21 -1 0 0 103 101  0.000000e+00  0.000000e+00 -1.817679e+03  1.817679e+03 0.0 0.0 9.0
22  1 1 2   0   0  1.854969e+03  3.186334e+02 -9.247071e+02  2.097027e+03 0.0 0.0 9.0
 2  1 1 2 103   0 -1.854969e+03 -3.186334e+02  2.579672e+03  3.193297e+03 0.0022 0.0 9.0
#pdf 2 21 5.342530e-01 2.796430e-01 5000.0 5.317809e-02 2.747296e-01
</event>
<event>
4 7 1.0 5000.0 7.905138e-03 7.739137e-02
 2 -1 0 0 101   0  0.000000e+00  0.000000e+00  2.787957e+03  2.787957e+03 0.0 0.0 9.0
21 -1 0 0 103 101  0.000000e+00  0.000000e+00 -2.211964e+03  2.211964e+03 0.0 0.0 9.0
22  1 1 2   0   0 -2.246680e+03  6.636384e+02  1.117457e+03  2.595515e+03 0.0 0.0 9.0
 2  1 1 2 103   0  2.246680e+03 -6.636384e+02 -5.414630e+02  2.404406e+03 0.0022 0.0 9.0
#pdf 2 21 4.289165e-01 3.403021e-01 5000.0 1.181872e-01 2.022011e-01
</event>
<event>
4 7 1.0 5000.0 7.905138e-03 7.739137e-02
21 -1 0 0 103 101  0.000000e+00  0.000000e+00  2.850846e+03  2.850846e+03 0.0 0.0 9.0
 2 -1 0 0 101   0  0.000000e+00  0.000000e+00 -2.197401e+03  2.197401e+03 0.0 0.0 9.0
22  1 1 2   0   0 -2.310061e+03 -9.578124e+02  2.225854e+02  2.510644e+03 0.0 0.0 9.0
 2  1 1 2 103   0  2.310061e+03  9.578124e+02  4.308595e+02  2.537603e+03 0.0022 0.0 9.0
#pdf 21 2 4.385917e-01 3.380617e-01 5000.0 6.406379e-03 2.259362e-02
</event>
<event>
4 7 1.0 5000.0 7.905138e-03 7.739137e-02
 2 -1 0 0 101   0  0.000000e+00  0.000000e+00  2.887907e+03  2.887907e+03 0.0 0.0 9.0
21 -1 0 0 103 101  0.000000e+00  0.000000e+00 -2.086152e+03  2.086152e+03 0.0 0.0 9.0
22  1 1 2   0   0 -5.295815e+02  1.624326e+03  2.186533e+03  2.774855e+03 0.0 0.0 9.0
 2  1 1 2 103   0  5.295815e+02 -1.624326e+03 -1.384778e+03  2.199205e+03 0.0022 0.0 9.0
#pdf 2 21 4.442934e-01 3.209464e-01 5000.0 1.064198e-01 2.241448e-01
</event>
<event>
4 7 1.0 5000.0 7.905138e-03 7.739137e-02
21 -1 0 0 103 101  0.000000e+00  0.000000e+00  3.626240e+03  3.626240e+03 0.0 0.0 9.0
 2 -1 0 0 101   0  0.000000e+00  0.000000e+00 -1.729641e+03  1.729641e+03 0.0 0.0 9.0
 2  1 1 2 103   0 -2.116784e+03 -2.774098e+02  2.348357e+03  3.173722e+03 0.0022 0.0 9.0
22  1 1 2   0   0  2.116784e+03  2.774098e+02 -4.517580e+02  2.182158e+03 0.0 0.0 9.0
#pdf 21 2 5.578830e-01 2.660986e-01 5000.0 1.231358e-03 5.460889e-02
</event>
<event>
4 7 1.0 5000.0 7.905138e-03 7.739137e-02
 2 -1 0 0 101   0  0.000000e+00  0.000000e+00  2.441561e+03  2.441561e+03 0.0 0.0 9.0
21 -1 0 0 103 101  0.000000e+00  0.000000e+00 -2.580804e+03  2.580804e+03 0.0 0.0 9.0
22  1 1 2   0   0  1.922839e+03 -1.613476e+03 -9.359900e+01  2.511847e+03 0.0 0.0 9.0
 2  1 1 2 103   0 -1.922839e+03  1.613476e+03 -4.564394e+01  2.510517e+03 0.0022 0.0 9.0
#pdf 2 21 3.756247e-01 3.970467e-01 5000.0 1.654105e-01 1.452353e-01
</event>
<event>
4 7 1.0 5000.0 7.905138e-03 7.739137e-02
 2 -1 0 0 101   0  0.000000e+00  0.000000e+00  3.201968e+03  3.201968e+03 0.0 0.0 9.0
21 -1 0 0 103 101  0.000000e+00  0.000000e+00 -1.971768e+03  1.971768e+03 0.0 0.0 9.0
 2  1 1 2 103   0  1.813437e+02  1.957514e+03  2.226168e+03  2.969944e+03 0.0022 0.0 9.0
22  1 1 2   0   0 -1.813437e+02 -1.957514e+03 -9.959675e+02  2.203792e+03 0.0 0.0 9.0
#pdf 2 21 4.926105e-01 3.033489e-01 5000.0 7.464598e-02 2.451006e-01
</event>
<event>
4 7 1.0 5000.0 7.905138e-03 7.739137e-02
 2 -1 0 0 101   0  0.000000e+00  0.000000e+00  4.089459e+03  4.089459e+03 0.0 0.0 9.0
21 -1 0 0 103 101  0.000000e+00  0.000000e+00 -1.672243e+03  1.672243e+03 0.0 0.0 9.0
 2  1 1 2 103   0  3.030592e+02 -2.594345e+03  1.068830e+03  2.822210e+03 0.0022 0.0 9.0
22  1 1 2   0   0 -3.030592e+02  2.594345e+03  1.348386e+03  2.939492e+03 0.0 0.0 9.0
#pdf 2 21 6.291476e-01 2.572681e-01 5000.0 2.124465e-02 3.039114e-01
</event>
<event>
4 7 1.0 5000.0 7.905138e-03 7.739137e-02
 2 -1 0 0 101   0  0.000000e+00  0.000000e+00  1.298160e+03  1.298160e+03 0.0 0.0 9.0
21 -1 0 0 103 101  0.000000e+00  0.000000e+00 -3.689982e+03  3.689982e+03 0.0 0.0 9.0
 2  1 1 2 103   0  1.978746e+03 -5.952424e+02 -3.738235e+02  2.099879e+03 0.0022 0.0 9.0
22  1 1 2   0   0 -1.978746e+03  5.952424e+02 -2.017999e+03  2.888263e+03 0.0 0.0 9.0
#pdf 2 21 1.997169e-01 5.676896e-01 5000.0 3.824182e-01 3.947018e-02
</event>
<event>
4 7 1.0 5000.0 7.905138e-03 7.739137e-02
 2 -1 0 0 101   0  0.000000e+00  0.000000e+00  2.514576e+03  2.514576e+03 0.0 0.0 9.0
21 -1 0 0 103 101  0.000000e+00  0.000000e+00 -2.439633e+03  2.439633e+03 0.0 0.0 9.0
22  1 1 2   0   0 -1.691089e+03 -1.148999e+03  1.435724e+03  2.498256e+03 0.0 0.0 9.0
 2  1 1 2 103   0  1.691089e+03  1.148999e+03 -1.360781e+03  2.455953e+03 0.0022 0.0 9.0
#pdf 2 21 3.868579e-01 3.753281e-01 5000.0 1.546319e-01 1.657007e-01
</event>
<event>
4 7 1.0 5000.0 7.905138e-03 7.739137e-02
 2 -1 0 0 101   0  0.000000e+00  0.000000e+00  3.065538e+03  3.065538e+03 0.0 0.0 9.0
21 -1 0 0 103 101  0.000000e+00  0.000000e+00 -2.016097e+03  2.016097e+03 0.0 0.0 9.0
22  1 1 2   0   0  1.739501e+03 -4.395277e+02 -1.234058e+03  2.177601e+03 0.0 0.0 9.0
 2  1 1 2 103   0 -1.739501e+03  4.395277e+02  2.283498e+03  2.904034e+03 0.0022 0.0 9.0
#pdf 2 21 4.716212e-01 3.101688e-01 5000.0 8.750297e-02 2.368621e-01
</event>
<event>
4 7 1.0 5000.0 7.905138e-03 7.739137e-02
21 -1 0 0 103 101  0.000000e+00  0.000000e+00  1.831845e+03  1.831845e+03 0.0 0.0 9.0
 2 -1 0 0 101   0  0.000000e+00  0.000000e+00 -3.282144e+03  3.282144e+03 0.0 0.0 9.0
22  1 1 2   0   0  2.403440e+03  4.754422e+02 -6.218576e+02  2.527702e+03 0.0 0.0 9.0
 2  1 1 2 103   0 -2.403440e+03 -4.754422e+02 -8.284406e+02  2.586287e+03 0.0022 0.0 9.0
#pdf 21 2 2.818224e-01 5.049452e-01 5000.0 4.500189e-02 2.631736e-03
</event>
<event>
4 7 1.0 5000.0 7.905138e-03 7.739137e-02
21 -1 0 0 103 101  0.000000e+00  0.000000e+00  2.154228e+03  2.154228e+03 0.0 0.0 9.0
 2 -1 0 0 101   0  0.000000e+00  0.000000e+00 -2.623280e+03  2.623280e+03 0.0 0.0 9.0
22  1 1 2   0   0 -1.055156e+02 -2.362316e+03  1.052567e+01  2.364695e+03 0.0 0.0 9.0
 2  1 1 2 103   0  1.055156e+02  2.362316e+03 -4.795782e+02  2.412813e+03 0.0022 0.0 9.0
#pdf 21 2 3.314197e-01 4.035816e-01 5000.0 2.451614e-02 1.001742e-02
</event>
<event>
4 7 1.0 5000.0 7.905138e-03 7.739137e-02
 2 -1 0 0 101   0  0.000000e+00  0.000000e+00  3.552327e+03  3.552327e+03 0.0 0.0 9.0
21 -1 0 0 103 101  0.000000e+00  0.000000e+00 -1.780698e+03  1.780698e+03 0.0 0.0 9.0
 2  1 1 2 103   0  4.200095e+02 -1.272127e+03 -1.370942e+03  1.916819e+03 0.0022 0.0 9.0
22  1 1 2   0   0 -4.200095e+02  1.272127e+03  3.142570e+03  3.416206e+03 0.0 0.0 9.0
#pdf 2 21 5.465118e-01 2.739536e-01 5000.0 4.780672e-02 2.820518e-01
</event>
<event>
4 7 1.0 5000.0 7.905138e-03 7.739137e-02
21 -1 0 0 103 101  0.000000e+00  0.000000e+00  1.925130e+03  1.925130e+03 0.0 0.0 9.0
 2 -1 0 0 101   0  0.000000e+00  0.000000e+00 -2.967031e+03  2.967031e+03 0.0 0.0 9.0
 2  1 1 2 103   0  7.109443e+02  2.236600e+03 -5.857207e+01  2.347606e+03 0.0022 0.0 9.0
22  1 1 2   0   0 -7.109443e+02 -2.236600e+03 -9.833294e+02  2.544555e+03 0.0 0.0 9.0
#pdf 21 2 2.961738e-01 4.564663e-01 5000.0 3.778213e-02 5.068586e-03
</event>
<event>
4 7 1.0 5000.0 7.905138e-03 7.739137e-02
 2 -1 0 0 101   0  0.000000e+00  0.000000e+00  1.496597e+03  1.496597e+03 0.0 0.0 9.0
21 -1 0 0 103 101  0.000000e+00  0.000000e+00 -3.998684e+03  3.998684e+03 0.0 0.0 9.0
 2  1 1 2 103   0  1.338974e+02  9.744676e+02  1.264702e+03  1.602182e+03 0.0022 0.0 9.0
22  1 1 2   0   0 -1.338974e+02 -9.744676e+02 -3.766789e+03  3.893098e+03 0.0 0.0 9.0
#pdf 2 21 2.302457e-01 6.151821e-01 5000.0 3.403924e-01 2.468274e-02
</event>
<event>
4 7 1.0 5000.0 7.905138e-03 7.739137e-02
 2 -1 0 0 101   0  0.000000e+00  0.000000e+00  1.587393e+03  1.587393e+03 0.0 0.0 9.0
21 -1 0 0 103 101  0.000000e+00  0.000000e+00 -3.999770e+03  3.999770e+03 0.0 0.0 9.0
 2  1 1 2 103   0 -2.199636e+03  5.006759e+01  1.554002e+02  2.205687e+03 0.0022 0.0 9.0
22  1 1 2   0   0  2.199636e+03 -5.006759e+01 -2.567777e+03  3.381476e+03 0.0 0.0 9.0
#pdf 2 21 2.442143e-01 6.153492e-01 5000.0 3.213982e-01 2.463934e-02
</event>
<event>
4 7 1.0 5000.0 7.905138e-03 7.739137e-02
 2 -1 0 0 101   0  0.000000e+00  0.000000e+00  1.470161e+03  1.470161e+03 0.0 0.0 9.0
21 -1 0 0 103 101  0.000000e+00  0.000000e+00 -3.914038e+03  3.914038e+03 0.0 0.0 9.0
 2  1 1 2 103   0 -9.176134e+02 -8.251008e+02 -3.530499e+03  3.739951e+03 0.0022 0.0 9.0
22  1 1 2   0   0  9.176134e+02  8.251008e+02  1.086622e+03  1.644248e+03 0.0 0.0 9.0
#pdf 2 21 2.261786e-01 6.021598e-01 5000.0 3.459589e-01 2.823946e-02
</event>
<event>
4 7 1.0 5000.0 7.905138e-03 7.739137e-02
21 -1 0 0 103 101  0.000000e+00  0.000000e+00  2.145268e+03  2.145268e+03 0.0 0.0 9.0
 2 -1 0 0 101   0  0.000000e+00  0.000000e+00 -2.907132e+03  2.907132e+03 0.0 0.0 9.0
 2  1 1 2 103   0  2.297946e+03 -7.441676e+02  2.606266e+02  2.429458e+03 0.0022 0.0 9.0
22  1 1 2   0   0 -2.297946e+03  7.441676e+02 -1.022490e+03  2.622942e+03 0.0 0.0 9.0
#pdf 21 2 3.300413e-01 4.472510e-01 5000.0 2.493366e-02 5.715189e-03
</event>
<event>
4 7 1.0 5000.0 7.905138e-03 7.739137e-02
21 -1 0 0 103 101  0.000000e+00  0.000000e+00  2.153218e+03  2.153218e+03 0.0 0.0 9.0
 2 -1 0 0 101   0  0.000000e+00  0.000000e+00 -2.848368e+03  2.848368e+03 0.0 0.0 9.0
22  1 1 2   0   0 -1.815590e+02 -2.400612e+03 -9.340024e+02  2.582298e+03 0.0 0.0 9.0
 2  1 1 2 103   0  1.815590e+02  2.400612e+03  2.388532e+02  2.419288e+03 0.0022 0.0 9.0
#pdf 21 2 3.312644e-01 4.382104e-01 5000.0 2.456285e-02 6.437970e-03
</event>
<event>
4 7 1.0 5000.0 7.905138e-03 7.739137e-02
 2 -1 0 0 101   0  0.000000e+00  0.000000e+00  1.151206e+03  1.151206e+03 0.0 0.0 9.0
21 -1 0 0 103 101  0.000000e+00  0.000000e+00 -5.462963e+03  5.462963e+03 0.0 0.0 9.0
 2  1 1 2 103   0 -2.477238e+03  3.669451e+02 -1.980735e+03  3.192909e+03 0.0022 0.0 9.0
22  1 1 2   0   0  2.477238e+03 -3.669451e+02 -2.331022e+03  3.421260e+03 0.0 0.0 9.0
#pdf 2 21 1.771087e-01 8.404559e-01 5000.0 4.134077e-01 6.749323e-04
</event>
<event>
4 7 1.0 5000.0 7.905138e-03 7.739137e-02
21 -1 0 0 103 101  0.000000e+00  0.000000e+00  2.545311e+03  2.545311e+03 0.0 0.0 9.0
 2 -1 0 0 101   0  0.000000e+00  0.000000e+00 -1.844937e+03  1.844937e+03 0.0 0.0 9.0
 2  1 1 2 103   0  2.116592e+02 -1.016564e+03  2.276897e+03  2.502491e+03 0.0022 0.0 9.0
22  1 1 2   0   0 -2.116592e+02  1.016564e+03 -1.576523e+03  1.887757e+03 0.0 0.0 9.0
#pdf 21 2 3.915863e-01 2.838365e-01 5000.0 1.164860e-02 4.390295e-02
</event>
<event>
4 7 1.0 5000.0 7.905138e-03 7.739137e-02
21 -1 0 0 103 101  0.000000e+00  0.000000e+00  2.985830e+03  2.985830e+03 0.0 0.0 9.0
 2 -1 0 0 101   0  0.000000e+00  0.000000e+00 -2.061294e+03  2.061294e+03 0.0 0.0 9.0
 2  1 1 2 103   0  1.811449e+03  1.501707e+03  1.262059e+03  2.670068e+03 0.0022 0.0 9.0
22  1 1 2   0   0 -1.811449e+03 -1.501707e+03 -3.375230e+02  2.377056e+03 0.0 0.0 9.0
#pdf 21 2 4.593585e-01 3.171221e-01 5000.0 4.877028e-03 2.920628e-02
</event>
<event>
4 7 1.0 5000.0 7.905138e-03 7.739137e-02
 2 -1 0 0 101   0  0.000000e+00  0.000000e+00  1.362077e+03  1.362077e+03 0.0 0.0 9.0
21 -1 0 0 103 101  0.000000e+00  0.000000e+00 -4.429652e+03  4.429652e+03 0.0 0.0 9.0
 2  1 1 2 103   0  2.392620e+03 -5.275156e+02 -1.327473e+03  2.786591e+03 0.0022 0.0 9.0
22  1 1 2   0   0 -2.392620e+03  5.275156e+02 -1.740101e+03  3.005138e+03 0.0 0.0 9.0
#pdf 2 21 2.095504e-01 6.814849e-01 5000.0 3.688347e-01 1.143240e-02
</event>
<event>
4 7 1.0 5000.0 7.905138e-03 7.739137e-02
 2 -1 0 0 101   0  0.000000e+00  0.000000e+00  2.714738e+03  2.714738e+03 0.0 0.0 9.0
21 -1 0 0 103 101  0.000000e+00  0.000000e+00 -2.312137e+03  2.312137e+03 0.0 0.0 9.0
22  1 1 2   0   0 -1.078460e+03  2.944690e+02  2.450636e+03  2.693586e+03 0.0 0.0 9.0
 2  1 1 2 103   0  1.078460e+03 -2.944690e+02 -2.048035e+03  2.333289e+03 0.0022 0.0 9.0
#pdf 2 21 4.176519e-01 3.557134e-01 5000.0 1.273347e-01 1.856154e-01
</event>
<event>
4 7 1.0 5000.0 7.905138e-03 7.739137e-02
21 -1 0 0 103 101  0.000000e+00  0.000000e+00  2.181264e+03  2.181264e+03 0.0 0.0 9.0
 2 -1 0 0 101   0  0.000000e+00  0.000000e+00 -2.458884e+03  2.458884e+03 0.0 0.0 9.0
22  1 1 2   0   0 -9.215022e+02  1.823308e+03  9.539531e+02  2.254694e+03 0.0 0.0 9.0
 2  1 1 2 103   0  9.215022e+02 -1.823308e+03 -1.231573e+03  2.385454e+03 0.0022 0.0 9.0
#pdf 21 2 3.355791e-01 3.782899e-01 5000.0 2.329477e-02 1.376529e-02
</event>
<event>
4 7 1.0 5000.0 7.905138e-03 7.739137e-02
 2 -1 0 0 101   0  0.000000e+00  0.000000e+00  3.012695e+03  3.012695e+03 0.0 0.0 9.0
21 -1 0 0 103 101  0.000000e+00  0.000000e+00 -2.059545e+03  2.059545e+03 0.0 0.0 9.0
 2  1 1 2 103   0  1.754613e+03  9.028542e+02  2.024336e+03  2.826968e+03 0.0022 0.0 9.0
22  1 1 2   0   0 -1.754613e+03 -9.028542e+02 -1.071186e+03  2.245273e+03 0.0 0.0 9.0
#pdf 2 21 4.634916e-01 3.168531e-01 5000.0 9.286364e-02 2.289340e-01
</event>
<event>
4 7 1.0 5000.0 7.905138e-03 7.739137e-02
 2 -1 0 0 101   0  0.000000e+00  0.000000e+00  2.742404e+03  2.742404e+03 0.0 0.0 9.0
21 -1 0 0 103 101  0.000000e+00  0.000000e+00 -2.240789e+03  2.240789e+03 0.0 0.0 9.0
22  1 1 2   0   0 -5.067915e+02  2.086260e+03  1.496421e+03  2.616982e+03 0.0 0.0 9.0
 2  1 1 2 103   0  5.067915e+02 -2.086260e+03 -9.948062e+02  2.366212e+03 0.0022 0.0 9.0
#pdf 2 21 4.219083e-01 3.447368e-01 5000.0 1.238235e-01 1.973460e-01
</event>
<event>
4 7 1.0 5000.0 7.905138e-03 7.739137e-02
21 -1 0 0 103 101  0.000000e+00  0.000000e+00  2.133319e+03  2.133319e+03 0.0 0.0 9.0
 2 -1 0 0 101   0  0.000000e+00  0.000000e+00 -3.311028e+03  3.311028e+03 0.0 0.0 9.0
 2  1 1 2 103   0 -2.042932e+03  1.699972e+03 -5.887727e+02  2.722156e+03 0.0022 0.0 9.0
22  1 1 2   0   0  2.042932e+03 -1.699972e+03 -5.889361e+02  2.722191e+03 0.0 0.0 9.0
#pdf 21 2 3.282029e-01 5.093889e-01 5000.0 2.550099e-02 2.474384e-03
</event>
<event>
4 7 1.0 5000.0 7.905138e-03 7.739137e-02
21 -1 0 0 103 101  0.000000e+00  0.000000e+00  4.290973e+03  4.290973e+03 0.0 0.0 9.0
 2 -1 0 0 101   0  0.000000e+00  0.000000e+00 -1.508938e+03  1.508938e+03 0.0 0.0 9.0
22  1 1 2   0   0  2.859162e+01 -2.543544e+03  1.315617e+03  2.863788e+03 0.0 0.0 9.0
 2  1 1 2 103   0 -2.859162e+01  2.543544e+03  1.466419e+03  2.936123e+03 0.0022 0.0 9.0
#pdf 21 2 6.601497e-01 2.321442e-01 5000.0 2.312488e-04 8.337659e-02
</event>
<event>
4 7 1.0 5000.0 7.905138e-03 7.739137e-02
 2 -1 0 0 101   0  0.000000e+00  0.000000e+00  2.369409e+03  2.369409e+03 0.0 0.0 9.0
21 -1 0 0 103 101  0.000000e+00  0.000000e+00 -2.648447e+03  2.648447e+03 0.0 0.0 9.0
 2  1 1 2 103   0 -7.982373e+02 -2.174266e+03 -1.095272e+03  2.562076e+03 0.0022 0.0 9.0
22  1 1 2   0   0  7.982373e+02  2.174266e+03  8.162333e+02  2.455779e+03 0.0 0.0 9.0
#pdf 2 21 3.645244e-01 4.074534e-01 5000.0 1.765009e-01 1.360042e-01
</event>
<event>
4 7 1.0 5000.0 7.905138e-03 7.739137e-02
21 -1 0 0 103 101  0.000000e+00  0.000000e+00  3.853240e+03  3.853240e+03 0.0 0.0 9.0
 2 -1 0 0 101   0  0.000000e+00  0.000000e+00 -1.697354e+03  1.697354e+03 0.0 0.0 9.0
 2  1 1 2 103   0 -2.529201e+03 -6.126545e+00  6.669716e+02  2.615673e+03 0.0022 0.0 9.0
22  1 1 2   0   0  2.529201e+03  6.126545e+00  1.488914e+03  2.934921e+03 0.0 0.0 9.0
#pdf 21 2 5.928061e-01 2.611314e-01 5000.0 7.193908e-04 5.808025e-02
</event>
<event>
4 7 1.0 5000.0 7.905138e-03 7.739137e-02
21 -1 0 0 103 101  0.000000e+00  0.000000e+00  1.554034e+03  1.554034e+03 0.0 0.0 9.0
 2 -1 0 0 101   0  0.000000e+00  0.000000e+00 -4.050304e+03  4.050304e+03 0.0 0.0 9.0
 2  1 1 2 103   0 -1.936975e+03 -1.508829e+03 -6.722246e+02  2.545648e+03 0.0022 0.0 9.0
22  1 1 2   0   0  1.936975e+03  1.508829e+03 -1.824045e+03  3.058689e+03 0.0 0.0 9.0
#pdf 21 2 2.390821e-01 6.231237e-01 5000.0 7.649016e-02 4.399365e-04
</event>
<event>
4 7 1.0 5000.0 7.905138e-03 7.739137e-02
21 -1 0 0 103 101  0.000000e+00  0.000000e+00  2.047978e+03  2.047978e+03 0.0 0.0 9.0
 2 -1 0 0 101   0  0.000000e+00  0.000000e+00 -3.155148e+03  3.155148e+03 0.0 0.0 9.0
 2  1 1 2 103   0 -2.490940e+03 -1.082278e+02 -4.682264e+01  2.493729e+03 0.0022 0.0 9.0
22  1 1 2   0   0  2.490940e+03  1.082278e+02 -1.060347e+03  2.709397e+03 0.0 0.0 9.0
#pdf 21 2 3.150735e-01 4.854074e-01 5000.0 2.995415e-02 3.440385e-03
</event>
<event>
4 7 1.0 5000.0 7.905138e-03 7.739137e-02
 2 -1 0 0 101   0  0.000000e+00  0.000000e+00  3.029921e+03  3.029921e+03 0.0 0.0 9.0
21 -1 0 0 103 101  0.000000e+00  0.000000e+00 -2.024580e+03  2.024580e+03 0.0 0.0 9.0
 2  1 1 2 103   0 -3.793089e+02 -5.618816e+02  2.933406e+03  3.010724e+03 0.0022 0.0 9.0
22  1 1 2   0   0  3.793089e+02  5.618816e+02 -1.928066e+03  2.043777e+03 0.0 0.0 9.0
#pdf 2 21 4.661416e-01 3.114739e-01 5000.0 9.109437e-02 2.353031e-01
</event>
<event>
4 7 1.0 5000.0 7.905138e-03 7.739137e-02
21 -1 0 0 103 101  0.000000e+00  0.000000e+00  2.381013e+03  2.381013e+03 0.0 0.0 9.0
 2 -1 0 0 101   0  0.000000e+00  0.000000e+00 -2.608779e+03  2.608779e+03 0.0 0.0 9.0
 2  1 1 2 103   0  1.094097e+03  1.962397e+03  9.658928e+02  2.445608e+03 0.0022 0.0 9.0
22  1 1 2   0   0 -1.094097e+03 -1.962397e+03 -1.193659e+03  2.544184e+03 0.0 0.0 9.0
#pdf 21 2 3.663097e-01 4.013506e-01 5000.0 1.595820e-02 1.030316e-02
</event>
<event>
4 7 1.0 5000.0 7.905138e-03 7.739137e-02
21 -1 0 0 103 101  0.000000e+00  0.000000e+00  2.844488e+03  2.844488e+03 0.0 0.0 9.0
 2 -1 0 0 101   0  0.000000e+00  0.000000e+00 -1.883221e+03  1.883221e+03 0.0 0.0 9.0
 2  1 1 2 103   0 -4.011925e+02 -2.181998e+03  1.154040e+03  2.500775e+03 0.0022 0.0 9.0
22  1 1 2   0   0  4.011925e+02  2.181998e+03 -1.927725e+02  2.226933e+03 0.0 0.0 9.0
#pdf 21 2 4.376135e-01 2.897262e-01 5000.0 6.487645e-03 4.087446e-02
</event>
<event>
4 7 1.0 5000.0 7.905138e-03 7.739137e-02
21 -1 0 0 103 101  0.000000e+00  0.000000e+00  2.035960e+03  2.035960e+03 0.0 0.0 9.0
 2 -1 0 0 101   0  0.000000e+00  0.000000e+00 -3.060747e+03  3.060747e+03 0.0 0.0 9.0
22  1 1 2   0   0 -1.377736e+03 -3.050014e+02  1.589755e+03  2.125677e+03 0.0 0.0 9.0
 2  1 1 2 103   0  1.377736e+03  3.050014e+02 -2.614543e+03  2.971030e+03 0.0022 0.0 9.0
#pdf 21 2 3.132246e-01 4.708842e-01 5000.0 3.064778e-02 4.185141e-03
</event>
<event>
4 7 1.0 5000.0 7.905138e-03 7.739137e-02
21 -1 0 0 103 101  0.000000e+00  0.000000e+00  1.911558e+03  1.911558e+03 0.0 0.0 9.0
 2 -1 0 0 101   0  0.000000e+00  0.000000e+00 -3.283814e+03  3.283814e+03 0.0 0.0 9.0
22  1 1 2   0   0  1.507256e+02 -1.015401e+03 -3.055767e+03  3.223580e+03 0.0 0.0 9.0
 2  1 1 2 103   0 -1.507256e+02  1.015401e+03  1.683511e+03  1.971793e+03 0.0022 0.0 9.0
#pdf 21 2 2.940859e-01 5.052022e-01 5000.0 3.876518e-02 2.622381e-03
</event>
<event>
4 7 1.0 5000.0 7.905138e-03 7.739137e-02
 2 -1 0 0 101   0  0.000000e+00  0.000000e+00  3.113922e+03  3.113922e+03 0.0 0.0 9.0
21 -1 0 0 103 101  0.000000e+00  0.000000e+00 -1.997246e+03  1.997246e+03 0.0 0.0 9.0
22  1 1 2   0   0 -1.481588e+03 -1.265487e+03 -1.036699e+03  2.207104e+03 0.0 0.0 9.0
 2  1 1 2 103   0  1.481588e+03  1.265487e+03  2.153375e+03  2.904064e+03 0.0022 0.0 9.0
#pdf 2 21 4.790649e-01 3.072686e-01 5000.0 8.277778e-02 2.403465e-01
</event>
<event>
4 7 1.0 5000.0 7.905138e-03 7.739137e-02
 2 -1 0 0 101   0  0.000000e+00  0.000000e+00  4.230089e+03  4.230089e+03 0.0 0.0 9.0
21 -1 0 0 103 101  0.000000e+00  0.000000e+00 -1.404130e+03  1.404130e+03 0.0 0.0 9.0
 2  1 1 2 103   0 -4.527226e+02 -7.137666e+02  4.055240e+03  4.142390e+03 0.0022 0.0 9.0
22  1 1 2   0   0  4.527226e+02  7.137666e+02 -1.229282e+03  1.491829e+03 0.0 0.0 9.0
#pdf 2 21 6.507829e-01 2.160201e-01 5000.0 1.664201e-02 3.598783e-01
</event>
<event>
4 7 1.0 5000.0 7.905138e-03 7.739137e-02
21 -1 0 0 103 101  0.000000e+00  0.000000e+00  2.645583e+03  2.645583e+03 0.0 0.0 9.0
 2 -1 0 0 101   0  0.000000e+00  0.000000e+00 -2.095406e+03  2.095406e+03 0.0 0.0 9.0
22  1 1 2   0   0  2.307226e+03  1.889788e+02 -1.574434e+02  2.320300e+03 0.0 0.0 9.0
 2  1 1 2 103   0 -2.307226e+03 -1.889788e+02  7.076207e+02  2.420688e+03 0.0022 0.0 9.0
#pdf 21 2 4.070128e-01 3.223701e-01 5000.0 9.591669e-03 2.738655e-02
</event>
<event>
4 7 1.0 5000.0 7.905138e-03 7.739137e-02
 2 -1 0 0 101   0  0.000000e+00  0.000000e+00  3.489759e+03  3.489759e+03 0.0 0.0 9.0
21 -1 0 0 103 101  0.000000e+00  0.000000e+00 -1.788452e+03  1.788452e+03 0.0 0.0 9.0
 2  1 1 2 103   0 -1.311803e+03  1.994296e+03  7.206429e+01  2.388145e+03 0.0022 0.0 9.0
22  1 1 2   0   0  1.311803e+03 -1.994296e+03  1.629243e+03  2.890065e+03 0.0 0.0 9.0
#pdf 2 21 5.368860e-01 2.751464e-01 5000.0 5.198388e-02 2.805095e-01
</event>
<event>
4 7 1.0 5000.0 7.905138e-03 7.739137e-02
21 -1 0 0 103 101  0.000000e+00  0.000000e+00  1.325387e+03  1.325387e+03 0.0 0.0 9.0
 2 -1 0 0 101   0  0.000000e+00  0.000000e+00 -4.472615e+03  4.472615e+03 0.0 0.0 9.0
22  1 1 2   0   0  2.126620e+03 -1.092755e+03 -1.026259e+03  2.601890e+03 0.0 0.0 9.0
 2  1 1 2 103   0 -2.126620e+03  1.092755e+03 -2.120968e+03  3.196112e+03 0.0022 0.0 9.0
#pdf 21 2 2.039058e-01 6.880946e-01 5000.0 1.195339e-01 1.369647e-04
</event>
<event>
4 7 1.0 5000.0 7.905138e-03 7.739137e-02
 2 -1 0 0 101   0  0.000000e+00  0.000000e+00  2.217511e+03  2.217511e+03 0.0 0.0 9.0
21 -1 0 0 103 101  0.000000e+00  0.000000e+00 -2.535085e+03  2.535085e+03 0.0 0.0 9.0
22  1 1 2   0   0  6.453386e+02 -1.030628e+03 -2.198764e+03  2.512612e+03 0.0 0.0 9.0
 2  1 1 2 103   0 -6.453386e+02  1.030628e+03  1.881190e+03  2.239985e+03 0.0022 0.0 9.0
#pdf 2 21 3.411556e-01 3.900131e-01 5000.0 2.012618e-01 1.516842e-01
</event>
<event>
4 7 1.0 5000.0 7.905138e-03 7.739137e-02
 2 -1 0 0 101   0  0.000000e+00  0.000000e+00  3.607633e+03  3.607633e+03 0.0 0.0 9.0
21 -1 0 0 103 101  0.000000e+00  0.000000e+00 -1.731981e+03  1.731981e+03 0.0 0.0 9.0
 2  1 1 2 103   0  1.445049e+03 -1.085287e+02  3.113219e+03  3.433960e+03 0.0022 0.0 9.0
22  1 1 2   0   0 -1.445049e+03  1.085287e+02 -1.237567e+03  1.905654e+03 0.0 0.0 9.0
#pdf 2 21 5.550205e-01 2.664586e-01 5000.0 4.431913e-02 2.918152e-01
</event>
<event>
4 7 1.0 5000.0 7.905138e-03 7.739137e-02
 2 -1 0 0 101   0  0.000000e+00  0.000000e+00  2.777738e+03  2.777738e+03 0.0 0.0 9.0
21 -1 0 0 103 101  0.000000e+00  0.000000e+00 -2.241835e+03  2.241835e+03 0.0 0.0 9.0
22  1 1 2   0   0  1.665438e+03  4.105607e+02 -1.554921e+03  2.315172e+03 0.0 0.0 9.0
 2  1 1 2 103   0 -1.665438e+03 -4.105607e+02  2.090823e+03  2.704401e+03 0.0022 0.0 9.0
#pdf 2 21 4.273443e-01 3.448977e-01 5000.0 1.194353e-01 1.971710e-01
</event>
<event>
4 7 1.0 5000.0 7.905138e-03 7.739137e-02
21 -1 0 0 103 101  0.000000e+00  0.000000e+00  3.241716e+03  3.241716e+03 0.0 0.0 9.0
 2 -1 0 0 101   0  0.000000e+00  0.000000e+00 -1.777663e+03  1.777663e+03 0.0 0.0 9.0
 2  1 1 2 103   0  3.977193e+02 -1.860059e+03  2.263075e+03  2.956265e+03 0.0022 0.0 9.0
22  1 1 2   0   0 -3.977193e+02  1.860059e+03 -7.990215e+02  2.063113e+03 0.0 0.0 9.0
#pdf 21 2 4.987255e-01 2.734866e-01 5000.0 2.868550e-03 4.986220e-02
</event>
<event>
4 7 1.0 5000.0 7.905138e-03 7.739137e-02
 2 -1 0 0 101   0  0.000000e+00  0.000000e+00  3.697065e+03  3.697065e+03 0.0 0.0 9.0
21 -1 0 0 103 101  0.000000e+00  0.000000e+00 -1.645252e+03  1.645252e+03 0.0 0.0 9.0
 2  1 1 2 103   0 -1.287197e+03 -2.076709e+03  1.389993e+03  2.810993e+03 0.0022 0.0 9.0
22  1 1 2   0   0  1.287197e+03  2.076709e+03  6.618196e+02  2.531324e+03 0.0 0.0 9.0
#pdf 2 21 5.687792e-01 2.531157e-01 5000.0 3.907012e-02 3.094274e-01
</event>
<event>
4 7 1.0 5000.0 7.905138e-03 7.739137e-02
 2 -1 0 0 101   0  0.000000e+00  0.000000e+00  1.469759e+03  1.469759e+03 0.0 0.0 9.0
21 -1 0 0 103 101  0.000000e+00  0.000000e+00 -4.251435e+03  4.251435e+03 0.0 0.0 9.0
 2  1 1 2 103   0 -2.029175e+03 -1.149397e+03 -3.609594e+02  2.359864e+03 0.0022 0.0 9.0
22  1 1 2   0   0  2.029175e+03  1.149397e+03 -2.420717e+03  3.361330e+03 0.0 0.0 9.0
#pdf 2 21 2.261167e-01 6.540669e-01 5000.0 3.460434e-01 1.601793e-02
</event>
<event>
4 7 1.0 5000.0 7.905138e-03 7.739137e-02
 2 -1 0 0 101   0  0.000000e+00  0.000000e+00  3.754862e+03  3.754862e+03 0.0 0.0 9.0
21 -1 0 0 103 101  0.000000e+00  0.000000e+00 -1.569730e+03  1.569730e+03 0.0 0.0 9.0
 2  1 1 2 103   0 -1.098830e+02  1.005831e+03 -1.327499e+03  1.669138e+03 0.0022 0.0 9.0
22  1 1 2   0   0  1.098830e+02 -1.005831e+03  3.512631e+03  3.655454e+03 0.0 0.0 9.0
#pdf 2 21 5.776711e-01 2.414970e-01 5000.0 3.592642e-02 3.250443e-01
</event>
<event>
4 7 1.0 5000.0 7.905138e-03 7.739137e-02
 2 -1 0 0 101   0  0.000000e+00  0.000000e+00  2.813676e+03  2.813676e+03 0.0 0.0 9.0
21 -1 0 0 103 101  0.000000e+00  0.000000e+00 -2.114461e+03  2.114461e+03 0.0 0.0 9.0
22  1 1 2   0   0 -2.067434e+03 -9.686429e+02  1.216782e+03  2.587105e+03 0.0 0.0 9.0
 2  1 1 2 103   0  2.067434e+03  9.686429e+02 -5.175673e+02  2.341032e+03 0.0022 0.0 9.0
#pdf 2 21 4.328732e-01 3.253017e-01 5000.0 1.150875e-01 2.191003e-01
</event>
<event>
4 7 1.0 5000.0 7.905138e-03 7.739137e-02
 2 -1 0 0 101   0  0.000000e+00  0.000000e+00  2.164061e+03  2.164061e+03 0.0 0.0 9.0
21 -1 0 0 103 101  0.000000e+00  0.000000e+00 -2.817805e+03  2.817805e+03 0.0 0.0 9.0
22  1 1 2   0   0  4.046459e+02 -2.003757e+03 -1.724278e+03  2.674307e+03 0.0 0.0 9.0
 2  1 1 2 103   0 -4.046459e+02  2.003757e+03  1.070535e+03  2.307558e+03 0.0022 0.0 9.0
#pdf 2 21 3.329324e-01 4.335084e-01 5000.0 2.104065e-01 1.145951e-01
</event>
<event>
4 7 1.0 5000.0 7.905138e-03 7.739137e-02
21 -1 0 0 103 101  0.000000e+00  0.000000e+00  2.196511e+03  2.196511e+03 0.0 0.0 9.0
 2 -1 0 0 101   0  0.000000e+00  0.000000e+00 -2.759028e+03  2.759028e+03 0.0 0.0 9.0
 2  1 1 2 103   0  2.974474e+02  1.901683e+03  1.263445e+03  2.302426e+03 0.0022 0.0 9.0
22  1 1 2   0   0 -2.974474e+02 -1.901683e+03 -1.825962e+03  2.653113e+03 0.0 0.0 9.0
#pdf 21 2 3.379248e-01 4.244659e-01 5000.0 2.263164e-02 7.678749e-03
</event>
<event>
4 7 1.0 5000.0 7.905138e-03 7.739137e-02
 2 -1 0 0 101   0  0.000000e+00  0.000000e+00  1.695076e+03  1.695076e+03 0.0 0.0 9.0
21 -1 0 0 103 101  0.000000e+00  0.000000e+00 -4.368251e+03  4.368251e+03 0.0 0.0 9.0
 2  1 1 2 103   0 -1.106208e+02  2.160628e+03  5.022081e+02  2.220983e+03 0.0022 0.0 9.0
22  1 1 2   0   0  1.106208e+02 -2.160628e+03 -3.175383e+03  3.842344e+03 0.0 0.0 9.0
#pdf 2 21 2.607809e-01 6.720387e-01 5000.0 2.992743e-01 1.288235e-02
</event>
<event>
4 7 1.0 5000.0 7.905138e-03 7.739137e-02
 2 -1 0 0 101   0  0.000000e+00  0.000000e+00  1.596074e+03  1.596074e+03 0.0 0.0 9.0
21 -1 0 0 103 101  0.000000e+00  0.000000e+00 -3.988691e+03  3.988691e+03 0.0 0.0 9.0
 2  1 1 2 103   0  2.336069e+03 -9.395778e+01 -1.462768e+02  2.342530e+03 0.0022 0.0 9.0
22  1 1 2   0   0 -2.336069e+03  9.395778e+01 -2.246340e+03  3.242235e+03 0.0 0.0 9.0
#pdf 2 21 2.455499e-01 6.136447e-01 5000.0 3.196186e-01 2.508459e-02
</event>
<event>
4 7 1.0 5000.0 7.905138e-03 7.739137e-02
21 -1 0 0 103 101  0.000000e+00  0.000000e+00  3.289678e+03  3.289678e+03 0.0 0.0 9.0
 2 -1 0 0 101   0  0.000000e+00  0.000000e+00 -1.878067e+03  1.878067e+03 0.0 0.0 9.0
22  1 1 2   0   0 -1.861196e+03  1.312754e+02 -1.001359e+03  2.117547e+03 0.0 0.0 9.0
 2  1 1 2 103   0  1.861196e+03 -1.312754e+02  2.412970e+03  3.050199e+03 0.0022 0.0 9.0
#pdf 21 2 5.061044e-01 2.889334e-01 5000.0 2.589799e-03 4.126850e-02
</event>
<event>
4 7 1.0 5000.0 7.905138e-03 7.739137e-02
 2 -1 0 0 101   0  0.000000e+00  0.000000e+00  3.428333e+03  3.428333e+03 0.0 0.0 9.0
21 -1 0 0 103 101  0.000000e+00  0.000000e+00 -1.340531e+03  1.340531e+03 0.0 0.0 9.0
22  1 1 2   0   0 -1.168936e+03  2.745650e+02  3.019210e+03  3.249220e+03 0.0 0.0 9.0
 2  1 1 2 103   0  1.168936e+03 -2.745650e+02 -9.314082e+02  1.519645e+03 0.0022 0.0 9.0
#pdf 2 21 5.274359e-01 2.062356e-01 5000.0 5.634815e-02 3.734406e-01
</event>
<event>
4 7 1.0 5000.0 7.905138e-03 7.739137e-02
 2 -1 0 0 101   0  0.000000e+00  0.000000e+00  1.964449e+03  1.964449e+03 0.0 0.0 9.0
21 -1 0 0 103 101  0.000000e+00  0.000000e+00 -3.244356e+03  3.244356e+03 0.0 0.0 9.0
22  1 1 2   0   0 -2.492141e+03  9.526669e+01 -2.357373e+02  2.505078e+03 0.0 0.0 9.0
 2  1 1 2 103   0  2.492141e+03 -9.526669e+01 -1.044170e+03  2.703726e+03 0.0022 0.0 9.0
#pdf 2 21 3.022229e-01 4.991317e-01 5000.0 2.464762e-01 7.093806e-02
</event>
<event>
4 7 1.0 5000.0 7.905138e-03 7.739137e-02
 2 -1 0 0 101   0  0.000000e+00  0.000000e+00  1.873981e+03  1.873981e+03 0.0 0.0 9.0
21 -1 0 0 103 101  0.000000e+00  0.000000e+00 -3.301844e+03  3.301844e+03 0.0 0.0 9.0
 2  1 1 2 103   0  9.116484e+02  1.438653e+03 -2.600069e+03  3.108244e+03 0.0022 0.0 9.0
22  1 1 2   0   0 -9.116484e+02 -1.438653e+03  1.172206e+03  2.067581e+03 0.0 0.0 9.0
#pdf 2 21 2.883048e-01 5.079761e-01 5000.0 2.637317e-01 6.611985e-02
</event>
<event>
4 7 1.0 5000.0 7.905138e-03 7.739137e-02
21 -1 0 0 103 101  0.000000e+00  0.000000e+00  1.632105e+03  1.632105e+03 0.0 0.0 9.0
 2 -1 0 0 101   0  0.000000e+00  0.000000e+00 -3.859466e+03  3.859466e+03 0.0 0.0 9.0
 2  1 1 2 103   0 -4.788947e+02  1.978748e+03 -2.719435e+03  3.397073e+03 0.0022 0.0 9.0
22  1 1 2   0   0  4.788947e+02 -1.978748e+03  4.920734e+02  2.094497e+03 0.0 0.0 9.0
#pdf 21 2 2.510930e-01 5.937640e-01 5000.0 6.584297e-02 7.085676e-04
</event>
<event>
4 7 1.0 5000.0 7.905138e-03 7.739137e-02
21 -1 0 0 103 101  0.000000e+00  0.000000e+00  2.392312e+03  2.392312e+03 0.0 0.0 9.0
 2 -1 0 0 101   0  0.000000e+00  0.000000e+00 -2.813154e+03  2.813154e+03 0.0 0.0 9.0
22  1 1 2   0   0 -2.315674e+03 -7.559679e+02 -1.105600e+03  2.675105e+03 0.0 0.0 9.0
 2  1 1 2 103   0  2.315674e+03  7.559679e+02  6.847580e+02  2.530361e+03 0.0022 0.0 9.0
#pdf 21 2 3.680480e-01 4.327930e-01 5000.0 1.561270e-02 6.900337e-03
</event>
<event>
4 7 1.0 5000.0 7.905138e-03 7.739137e-02
 2 -1 0 0 101   0  0.000000e+00  0.000000e+00  2.156954e+03  2.156954e+03 0.0 0.0 9.0
21 -1 0 0 103 101  0.000000e+00  0.000000e+00 -2.831594e+03  2.831594e+03 0.0 0.0 9.0
22  1 1 2   0   0 -5.730237e+02 -2.403590e+03 -2.919952e+02  2.488145e+03 0.0 0.0 9.0
 2  1 1 2 103   0  5.730237e+02  2.403590e+03 -3.826444e+02  2.500404e+03 0.0022 0.0 9.0
#pdf 2 21 3.318391e-01 4.356298e-01 5000.0 2.116398e-01 1.129602e-01
</event>
<event>
4 7 1.0 5000.0 7.905138e-03 7.739137e-02
21 -1 0 0 103 101  0.000000e+00  0.000000e+00  2.309441e+03  2.309441e+03 0.0 0.0 9.0
 2 -1 0 0 101   0  0.000000e+00  0.000000e+00 -2.772571e+03  2.772571e+03 0.0 0.0 9.0
22  1 1 2   0   0 -1.130860e+03 -2.131401e+02  2.031474e+03  2.334772e+03 0.0 0.0 9.0
 2  1 1 2 103   0  1.130860e+03  2.131401e+02 -2.494604e+03  2.747239e+03 0.0022 0.0 9.0
#pdf 21 2 3.552986e-01 4.265493e-01 5000.0 1.827631e-02 7.475534e-03
</event>
<event>
4 7 1.0 5000.0 7.905138e-03 7.739137e-02
 2 -1 0 0 101   0  0.000000e+00  0.000000e+00  3.007349e+03  3.007349e+03 0.0 0.0 9.0
21 -1 0 0 103 101  0.000000e+00  0.000000e+00 -1.973085e+03  1.973085e+03 0.0 0.0 9.0
 2  1 1 2 103   0  3.792766e+02  2.399616e+03  6.992818e+02  2.528043e+03 0.0022 0.0 9.0
22  1 1 2   0   0 -3.792766e+02 -2.399616e+03  3.349827e+02  2.452391e+03 0.0 0.0 9.0
#pdf 2 21 4.626691e-01 3.035515e-01 5000.0 9.341715e-02 2.448536e-01
</event>
<event>
4 7 1.0 5000.0 7.905138e-03 7.739137e-02
21 -1 0 0 103 101  0.000000e+00  0.000000e+00  3.638643e+03  3.638643e+03 0.0 0.0 9.0
 2 -1 0 0 101   0  0.000000e+00  0.000000e+00 -1.706620e+03  1.706620e+03 0.0 0.0 9.0
22  1 1 2   0   0  7.204988e+02 -3.338693e+01  3.524243e+03  3.597294e+03 0.0 0.0 9.0
 2  1 1 2 103   0 -7.204988e+02  3.338693e+01 -1.592220e+03  1.747969e+03 0.0022 0.0 9.0
#pdf 21 2 5.597913e-01 2.625569e-01 5000.0 1.197026e-03 5.705713e-02
</event>
<event>
4 7 1.0 5000.0 7.905138e-03 7.739137e-02
 2 -1 0 0 101   0  0.000000e+00  0.000000e+00  4.668185e+03  4.668185e+03 0.0 0.0 9.0
21 -1 0 0 103 101  0.000000e+00  0.000000e+00 -1.355117e+03  1.355117e+03 0.0 0.0 9.0
 2  1 1 2 103   0  6.653610e+02 -2.211222e+03  2.850181e+03  3.668207e+03 0.0022 0.0 9.0
22  1 1 2   0   0 -6.653610e+02  2.211222e+03  4.628865e+02  2.355095e+03 0.0 0.0 9.0
#pdf 2 21 7.181822e-01 2.084795e-01 5000.0 6.931333e-03 3.703278e-01
</event>
<event>
4 7 1.0 5000.0 7.905138e-03 7.739137e-02
 2 -1 0 0 101   0  0.000000e+00  0.000000e+00  3.408531e+03  3.408531e+03 0.0 0.0 9.0
21 -1 0 0 103 101  0.000000e+00  0.000000e+00 -1.852686e+03  1.852686e+03 0.0 0.0 9.0
22  1 1 2   0   0 -6.716236e+02  1.674699e+03 -1.053037e+03  2.089158e+03 0.0 0.0 9.0
 2  1 1 2 103   0  6.716236e+02 -1.674699e+03  2.608882e+03  3.172059e+03 0.0022 0.0 9.0
#pdf 2 21 5.243893e-01 2.850287e-01 5000.0 5.780370e-02 2.678751e-01
</event>
<event>
4 7 1.0 5000.0 7.905138e-03 7.739137e-02
21 -1 0 0 103 101  0.000000e+00  0.000000e+00  3.833752e+03  3.833752e+03 0.0 0.0 9.0
 2 -1 0 0 101   0  0.000000e+00  0.000000e+00 -1.617987e+03  1.617987e+03 0.0 0.0 9.0
22  1 1 2   0   0  2.453395e+03  1.161387e+02  1.559580e+03  2.909454e+03 0.0 0.0 9.0
 2  1 1 2 103   0 -2.453395e+03 -1.161387e+02  6.561852e+02  2.542285e+03 0.0022 0.0 9.0
#pdf 21 2 5.898080e-01 2.489211e-01 5000.0 7.543602e-04 6.762579e-02
</event>
<event>
4 7 1.0 5000.0 7.905138e-03 7.739137e-02
21 -1 0 0 103 101  0.000000e+00  0.000000e+00  1.113433e+03  1.113433e+03 0.0 0.0 9.0
 2 -1 0 0 101   0  0.000000e+00  0.000000e+00 -5.062771e+03  5.062771e+03 0.0 0.0 9.0
22  1 1 2   0   0 -8.667156e+02  1.684969e+03 -1.138819e+02  1.898232e+03 0.0 0.0 9.0
 2  1 1 2 103   0  8.667156e+02 -1.684969e+03 -3.835456e+03  4.277971e+03 0.0022 0.0 9.0
#pdf 21 2 1.712974e-01 7.788878e-01 5000.0 1.843624e-01 1.807119e-05
</event>
<event>
4 7 1.0 5000.0 7.905138e-03 7.739137e-02
21 -1 0 0 103 101  0.000000e+00  0.000000e+00  3.601117e+03  3.601117e+03 0.0 0.0 9.0
 2 -1 0 0 101   0  0.000000e+00  0.000000e+00 -1.601184e+03  1.601184e+03 0.0 0.0 9.0
22  1 1 2   0   0  1.564682e+03 -5.434111e+02  2.883231e+03  3.325139e+03 0.0 0.0 9.0
 2  1 1 2 103   0 -1.564682e+03  5.434111e+02 -8.832974e+02  1.877162e+03 0.0022 0.0 9.0
#pdf 21 2 5.540181e-01 2.463359e-01 5000.0 1.302547e-03 6.978166e-02
</event>
<event>
4 7 1.0 5000.0 7.905138e-03 7.739137e-02
 2 -1 0 0 101   0  0.000000e+00  0.000000e+00  2.177048e+03  2.177048e+03 0.0 0.0 9.0
21 -1 0 0 103 101  0.000000e+00  0.000000e+00 -3.111031e+03  3.111031e+03 0.0 0.0 9.0
22  1 1 2   0   0  1.510659e+03  1.444844e+03  1.107995e+03  2.365865e+03 0.0 0.0 9.0
 2  1 1 2 103   0 -1.510659e+03 -1.444844e+03 -2.041978e+03  2.922215e+03 0.0022 0.0 9.0
#pdf 2 21 3.349305e-01 4.786202e-01 5000.0 2.081636e-01 8.305489e-02
</event>
<event>
4 7 1.0 5000.0 7.905138e-03 7.739137e-02
21 -1 0 0 103 101  0.000000e+00  0.000000e+00  1.517604e+03  1.517604e+03 0.0 0.0 9.0
 2 -1 0 0 101   0  0.000000e+00  0.000000e+00 -3.784943e+03  3.784943e+03 0.0 0.0 9.0
 2  1 1 2 103   0 -2.200588e+03  9.358952e+02 -9.568147e+02  2.575652e+03 0.0022 0.0 9.0
22  1 1 2   0   0  2.200588e+03 -9.358952e+02 -1.310523e+03  2.726895e+03 0.0 0.0 9.0
#pdf 21 2 2.334776e-01 5.822989e-01 5000.0 8.200569e-02 8.481521e-04
</event>
<event>
4 7 1.0 5000.0 7.905138e-03 7.739137e-02
 2 -1 0 0 101   0  0.000000e+00  0.000000e+00  2.364229e+03  2.364229e+03 0.0 0.0 9.0
21 -1 0 0 103 101  0.000000e+00  0.000000e+00 -2.742610e+03  2.742610e+03 0.0 0.0 9.0
22  1 1 2   0   0 -2.092181e+03 -5.987631e+02 -1.515114e+03  2.651661e+03 0.0 0.0 9.0
 2  1 1 2 103   0  2.092181e+03  5.987631e+02  1.136732e+03  2.455178e+03 0.0022 0.0 9.0
#pdf 2 21 3.637275e-01 4.219401e-01 5000.0 1.773146e-01 1.237975e-01
</event>
<event>
4 7 1.0 5000.0 7.905138e-03 7.739137e-02
21 -1 0 0 103 101  0.000000e+00  0.000000e+00  1.875937e+03  1.875937e+03 0.0 0.0 9.0
 2 -1 0 0 101   0  0.000000e+00  0.000000e+00 -3.443906e+03  3.443906e+03 0.0 0.0 9.0
 2  1 1 2 103   0 -1.687989e+03 -3.485890e+02 -2.738910e+03  3.236116e+03 0.0022 0.0 9.0
22  1 1 2   0   0  1.687989e+03  3.485890e+02  1.170941e+03  2.083728e+03 0.0 0.0 9.0
#pdf 21 2 2.886057e-01 5.298317e-01 5000.0 4.143245e-02 1.854531e-03
</event>
<event>
4 7 1.0 5000.0 7.905138e-03 7.739137e-02
21 -1 0 0 103 101  0.000000e+00  0.000000e+00  1.799896e+03  1.799896e+03 0.0 0.0 9.0
 2 -1 0 0 101   0  0.000000e+00  0.000000e+00 -3.534815e+03  3.534815e+03 0.0 0.0 9.0
 2  1 1 2 103   0  2.147255e+03  1.262855e+03 -1.286189e+03  2.803532e+03 0.0022 0.0 9.0
22  1 1 2   0   0 -2.147255e+03 -1.262855e+03 -4.487291e+02  2.531179e+03 0.0 0.0 9.0
#pdf 21 2 2.769071e-01 5.438176e-01 5000.0 4.781013e-02 1.513880e-03
</event>
<event>
4 7 1.0 5000.0 7.905138e-03 7.739137e-02
 2 -1 0 0 101   0  0.000000e+00  0.000000e+00  3.572458e+03  3.572458e+03 0.0 0.0 9.0
21 -1 0 0 103 101  0.000000e+00  0.000000e+00 -1.809409e+03  1.809409e+03 0.0 0.0 9.0
 2  1 1 2 103   0  1.206547e+03  1.985479e+03 -2.113279e+02  2.332926e+03 0.0022 0.0 9.0
22  1 1 2   0   0 -1.206547e+03 -1.985479e+03  1.974377e+03  3.048942e+03 0.0 0.0 9.0
#pdf 2 21 5.496090e-01 2.783707e-01 5000.0 4.650700e-02 2.763593e-01
</event>
<event>
4 7 1.0 5000.0 7.905138e-03 7.739137e-02
 2 -1 0 0 101   0  0.000000e+00  0.000000e+00  2.285424e+03  2.285424e+03 0.0 0.0 9.0
21 -1 0 0 103 101  0.000000e+00  0.000000e+00 -2.688983e+03  2.688983e+03 0.0 0.0 9.0
22  1 1 2   0   0  2.465728e+03  7.505736e+01  4.402280e+01  2.467262e+03 0.0 0.0 9.0
 2  1 1 2 103   0 -2.465728e+03 -7.505736e+01 -4.475822e+02  2.507145e+03 0.0022 0.0 9.0
#pdf 2 21 3.516037e-01 4.136898e-01 5000.0 1.899575e-01 1.306607e-01
</event>
<event>
4 7 1.0 5000.0 7.905138e-03 7.739137e-02
 2 -1 0 0 101   0  0.000000e+00  0.000000e+00  1.305140e+03  1.305140e+03 0.0 0.0 9.0
21 -1 0 0 103 101  0.000000e+00  0.000000e+00 -4.621160e+03  4.621160e+03 0.0 0.0 9.0
 2  1 1 2 103   0  1.307698e+03 -1.308576e+03  2.908086e+02  1.872702e+03 0.0022 0.0 9.0
22  1 1 2   0   0 -1.307698e+03  1.308576e+03 -3.606828e+03  4.053598e+03 0.0 0.0 9.0
#pdf 2 21 2.007908e-01 7.109477e-01 5000.0 3.809361e-01 7.689242e-03
</event>
<event>
4 7 1.0 5000.0 7.905138e-03 7.739137e-02
21 -1 0 0 103 101  0.000000e+00  0.000000e+00  2.608852e+03  2.608852e+03 0.0 0.0 9.0
 2 -1 0 0 101   0  0.000000e+00  0.000000e+00 -2.430320e+03  2.430320e+03 0.0 0.0 9.0
22  1 1 2   0   0  5.809804e+02 -1.366588e+03 -1.945541e+03  2.447495e+03 0.0 0.0 9.0
 2  1 1 2 103   0 -5.809804e+02  1.366588e+03  2.124074e+03  2.591677e+03 0.0022 0.0 9.0
#pdf 21 2 4.013619e-01 3.738954e-01 5000.0 1.030170e-02 1.452853e-02
</event>
<event>
4 7 1.0 5000.0 7.905138e-03 7.739137e-02
21 -1 0 0 103 101  0.000000e+00  0.000000e+00  2.456993e+03  2.456993e+03 0.0 0.0 9.0
 2 -1 0 0 101   0  0.000000e+00  0.000000e+00 -1.874794e+03  1.874794e+03 0.0 0.0 9.0
 2  1 1 2 103   0  2.216850e+02  1.762707e+03  1.506316e+03  2.329220e+03 0.0022 0.0 9.0
22  1 1 2   0   0 -2.216850e+02 -1.762707e+03 -9.241181e+02  2.002567e+03 0.0 0.0 9.0
#pdf 21 2 3.779989e-01 2.884299e-01 5000.0 1.381500e-02 4.152070e-02
</event>
<event>
4 7 1.0 5000.0 7.905138e-03 7.739137e-02
21 -1 0 0 103 101  0.000000e+00  0.000000e+00  2.119784e+03  2.119784e+03 0.0 0.0 9.0
 2 -1 0 0 101   0  0.000000e+00  0.000000e+00 -2.931549e+03  2.931549e+03 0.0 0.0 9.0
 2  1 1 2 103   0 -1.184598e+03  2.062918e+03  3.491481e+02  2.404331e+03 0.0022 0.0 9.0
22  1 1 2   0   0  1.184598e+03 -2.062918e+03 -1.160912e+03  2.647002e+03 0.0 0.0 9.0
#pdf 21 2 3.261207e-01 4.510075e-01 5000.0 2.615873e-02 5.445946e-03
</event>
<event>
4 7 1.0 5000.0 7.905138e-03 7.739137e-02
21 -1 0 0 103 101  0.000000e+00  0.000000e+00  2.108847e+03  2.108847e+03 0.0 0.0 9.0
 2 -1 0 0 101   0  0.000000e+00  0.000000e+00 -2.916675e+03  2.916675e+03 0.0 0.0 9.0
22  1 1 2   0   0  1.071584e+03  1.031361e+03 -2.414709e+03  2.835986e+03 0.0 0.0 9.0
 2  1 1 2 103   0 -1.071584e+03 -1.031361e+03  1.606881e+03  2.189535e+03 0.0022 0.0 9.0
#pdf 21 2 3.244380e-01 4.487192e-01 5000.0 2.670253e-02 5.608499e-03
</event>
<event>
4 7 1.0 5000.0 7.905138e-03 7.739137e-02
21 -1 0 0 103 101  0.000000e+00  0.000000e+00  2.074041e+03  2.074041e+03 0.0 0.0 9.0
 2 -1 0 0 101   0  0.000000e+00  0.000000e+00 -2.797210e+03  2.797210e+03 0.0 0.0 9.0
22  1 1 2   0   0 -1.203748e+03 -1.692970e+03 -1.594414e+03  2.618647e+03 0.0 0.0 9.0
 2  1 1 2 103   0  1.203748e+03  1.692970e+03  8.712443e+02  2.252604e+03 0.0022 0.0 9.0
#pdf 21 2 3.190832e-01 4.303400e-01 5000.0 2.851149e-02 7.119971e-03
</event>
<event>
4 7 1.0 5000.0 7.905138e-03 7.739137e-02
21 -1 0 0 103 101  0.000000e+00  0.000000e+00  1.900880e+03  1.900880e+03 0.0 0.0 9.0
 2 -1 0 0 101   0  0.000000e+00  0.000000e+00 -2.832586e+03  2.832586e+03 0.0 0.0 9.0
22  1 1 2   0   0  5.367897e+02 -6.657298e+02  1.734285e+03  1.933671e+03 0.0 0.0 9.0
 2  1 1 2 103   0 -5.367897e+02  6.657298e+02 -2.665991e+03  2.799794e+03 0.0022 0.0 9.0
#pdf 21 2 2.924431e-01 4.357824e-01 5000.0 3.954978e-02 6.641823e-03
</event>
<event>
4 7 1.0 5000.0 7.905138e-03 7.739137e-02
 2 -1 0 0 101   0  0.000000e+00  0.000000e+00  1.592216e+03  1.592216e+03 0.0 0.0 9.0
21 -1 0 0 103 101  0.000000e+00  0.000000e+00 -3.369610e+03  3.369610e+03 0.0 0.0 9.0
 2  1 1 2 103   0 -1.856287e+03  1.818904e+02 -2.359727e+03  3.007856e+03 0.0022 0.0 9.0
22  1 1 2   0   0  1.856287e+03 -1.818904e+02  5.823329e+02  1.953970e+03 0.0 0.0 9.0
#pdf 2 21 2.449562e-01 5.184015e-01 5000.0 3.204092e-01 6.074289e-02
</event>
<event>
4 7 1.0 5000.0 7.905138e-03 7.739137e-02
21 -1 0 0 103 101  0.000000e+00  0.000000e+00  2.110142e+03  2.110142e+03 0.0 0.0 9.0
 2 -1 0 0 101   0  0.000000e+00  0.000000e+00 -2.929416e+03  2.929416e+03 0.0 0.0 9.0
22  1 1 2   0   0  8.521287e+02 -3.676461e+02 -2.747289e+03  2.899808e+03 0.0 0.0 9.0
 2  1 1 2 103   0 -8.521287e+02  3.676461e+02  1.928016e+03  2.139750e+03 0.0022 0.0 9.0
#pdf 21 2 3.246373e-01 4.506794e-01 5000.0 2.663754e-02 5.469130e-03
</event>
<event>
4 7 1.0 5000.0 7.905138e-03 7.739137e-02
21 -1 0 0 103 101  0.000000e+00  0.000000e+00  1.544064e+03  1.544064e+03 0.0 0.0 9.0
 2 -1 0 0 101   0  0.000000e+00  0.000000e+00 -3.190600e+03  3.190600e+03 0.0 0.0 9.0
 2  1 1 2 103   0 -1.229953e+03 -9.091426e+02  8.922791e+02  1.770730e+03 0.0022 0.0 9.0
22  1 1 2   0   0  1.229953e+03  9.091426e+02 -2.538814e+03  2.963934e+03 0.0 0.0 9.0
#pdf 21 2 2.375484e-01 4.908615e-01 5000.0 7.796555e-02 3.194794e-03
</event>
<event>
4 7 1.0 5000.0 7.905138e-03 7.739137e-02
21 -1 0 0 103 101  0.000000e+00  0.000000e+00  1.669378e+03  1.669378e+03 0.0 0.0 9.0
 2 -1 0 0 101   0  0.000000e+00  0.000000e+00 -3.732664e+03  3.732664e+03 0.0 0.0 9.0
22  1 1 2   0   0  1.613614e+03  5.420860e+02  9.439575e+02  1.946449e+03 0.0 0.0 9.0
 2  1 1 2 103   0 -1.613614e+03 -5.420860e+02 -3.007243e+03  3.455593e+03 0.0022 0.0 9.0
#pdf 21 2 2.568274e-01 5.742560e-01 5000.0 6.129826e-02 9.599417e-04
</event>
<event>
4 7 1.0 5000.0 7.905138e-03 7.739137e-02
21 -1 0 0 103 101  0.000000e+00  0.000000e+00  1.961362e+03  1.961362e+03 0.0 0.0 9.0
 2 -1 0 0 101   0  0.000000e+00  0.000000e+00 -3.258136e+03  3.258136e+03 0.0 0.0 9.0
 2  1 1 2 103   0 -1.454699e+03 -1.855352e+03  2.932251e+02  2.375808e+03 0.0022 0.0 9.0
22  1 1 2   0   0  1.454699e+03  1.855352e+03 -1.589999e+03  2.843691e+03 0.0 0.0 9.0
#pdf 21 2 3.017480e-01 5.012517e-01 5000.0 3.526434e-02 2.769883e-03
</event>
<event>
4 7 1.0 5000.0 7.905138e-03 7.739137e-02
21 -1 0 0 103 101  0.000000e+00  0.000000e+00  4.256474e+03  4.256474e+03 0.0 0.0 9.0
 2 -1 0 0 101   0  0.000000e+00  0.000000e+00 -1.461537e+03  1.461537e+03 0.0 0.0 9.0
22  1 1 2   0   0  1.530032e+03  4.413220e+02  3.597949e+03  3.934590e+03 0.0 0.0 9.0
 2  1 1 2 103   0 -1.530032e+03 -4.413220e+02 -8.030122e+02  1.783421e+03 0.0022 0.0 9.0
#pdf 21 2 6.548422e-01 2.248519e-01 5000.0 2.544143e-04 9.141903e-02
</event>
<event>
4 7 1.0 5000.0 7.905138e-03 7.739137e-02
 2 -1 0 0 101   0  0.000000e+00  0.000000e+00  2.329808e+03  2.329808e+03 0.0 0.0 9.0
21 -1 0 0 103 101  0.000000e+00  0.000000e+00 -2.280316e+03  2.280316e+03 0.0 0.0 9.0
22  1 1 2   0   0  1.902250e+03 -4.775375e+02  1.235643e+03  2.318062e+03 0.0 0.0 9.0
 2  1 1 2 103   0 -1.902250e+03  4.775375e+02 -1.186151e+03  2.292062e+03 0.0022 0.0 9.0
#pdf 2 21 3.584320e-01 3.508178e-01 5000.0 1.827752e-01 1.907948e-01
</event>
<event>
4 7 1.0 5000.0 7.905138e-03 7.739137e-02
21 -1 0 0 103 101  0.000000e+00  0.000000e+00  2.685369e+03  2.685369e+03 0.0 0.0 9.0
 2 -1 0 0 101   0  0.000000e+00  0.000000e+00 -2.372647e+03  2.372647e+03 0.0 0.0 9.0
 2  1 1 2 103   0 -8.673855e+02  7.531833e+02  2.408288e+03  2.668238e+03 0.0022 0.0 9.0
22  1 1 2   0   0  8.673855e+02 -7.531833e+02 -2.095566e+03  2.389778e+03 0.0 0.0 9.0
#pdf 21 2 4.131337e-01 3.650226e-01 5000.0 8.872802e-03 1.621613e-02
</event>
<event>
4 7 1.0 5000.0 7.905138e-03 7.739137e-02
 2 -1 0 0 101   0  0.000000e+00  0.000000e+00  3.750531e+03  3.750531e+03 0.0 0.0 9.0
21 -1 0 0 103 101  0.000000e+00  0.000000e+00 -1.693842e+03  1.693842e+03 0.0 0.0 9.0
 2  1 1 2 103   0 -1.882912e+03  1.211274e+03  2.278691e+03  3.194522e+03 0.0022 0.0 9.0
22  1 1 2   0   0  1.882912e+03 -1.211274e+03 -2.220018e+02  2.249850e+03 0.0 0.0 9.0
#pdf 2 21 5.770047e-01 2.605911e-01 5000.0 3.615508e-02 2.995245e-01
</event>
<event>
4 7 1.0 5000.0 7.905138e-03 7.739137e-02
 2 -1 0 0 101   0  0.000000e+00  0.000000e+00  2.718155e+03  2.718155e+03 0.0 0.0 9.0
21 -1 0 0 103 101  0.000000e+00  0.000000e+00 -2.379195e+03  2.379195e+03 0.0 0.0 9.0
22  1 1 2   0   0 -3.486953e+02 -1.036630e+03 -2.131442e+03  2.395670e+03 0.0 0.0 9.0
 2  1 1 2 103   0  3.486953e+02  1.036630e+03  2.470402e+03  2.701680e+03 0.0022 0.0 9.0
#pdf 2 21 4.181776e-01 3.660300e-01 5000.0 1.268975e-01 1.749693e-01
</event>
<event>
4 7 1.0 5000.0 7.905138e-03 7.739137e-02
 2 -1 0 0 101   0  0.000000e+00  0.000000e+00  1.923999e+03  1.923999e+03 0.0 0.0 9.0
21 -1 0 0 103 101  0.000000e+00  0.000000e+00 -3.252089e+03  3.252089e+03 0.0 0.0 9.0
 2  1 1 2 103   0 -5.253714e+02 -2.444652e+03 -5.932591e+02  2.569882e+03 0.0022 0.0 9.0
22  1 1 2   0   0  5.253714e+02  2.444652e+03 -7.348306e+02  2.606206e+03 0.0 0.0 9.0
#pdf 2 21 2.959999e-01 5.003214e-01 5000.0 2.541158e-01 7.027605e-02
</event>
<event>
4 7 1.0 5000.0 7.905138e-03 7.739137e-02
21 -1 0 0 103 101  0.000000e+00  0.000000e+00  3.082270e+03  3.082270e+03 0.0 0.0 9.0
 2 -1 0 0 101   0  0.000000e+00  0.000000e+00 -1.935104e+03  1.935104e+03 0.0 0.0 9.0
22  1 1 2   0   0 -1.968094e+03  8.065605e+02 -6.593159e+02  2.226798e+03 0.0 0.0 9.0
 2  1 1 2 103   0  1.968094e+03 -8.065605e+02  1.806482e+03  2.790575e+03 0.0022 0.0 9.0
#pdf 21 2 4.741953e-01 2.977083e-01 5000.0 4.003754e-03 3.706767e-02
</event>
<event>
4 7 1.0 5000.0 7.905138e-03 7.739137e-02
21 -1 0 0 103 101  0.000000e+00  0.000000e+00  2.690884e+03  2.690884e+03 0.0 0.0 9.0
 2 -1 0 0 101   0  0.000000e+00  0.000000e+00 -2.352088e+03  2.352088e+03 0.0 0.0 9.0
22  1 1 2   0   0 -9.202073e+02 -1.187166e+03  2.192148e+03  2.657378e+03 0.0 0.0 9.0
 2  1 1 2 103   0  9.202073e+02  1.187166e+03 -1.853352e+03  2.385594e+03 0.0022 0.0 9.0
#pdf 21 2 4.139821e-01 3.618597e-01 5000.0 8.777581e-03 1.686021e-02
</event>
<event>
4 7 1.0 5000.0 7.905138e-03 7.739137e-02
 2 -1 0 0 101   0  0.000000e+00  0.000000e+00  3.406611e+03  3.406611e+03 0.0 0.0 9.0
21 -1 0 0 103 101  0.000000e+00  0.000000e+00 -1.828497e+03  1.828497e+03 0.0 0.0 9.0
22  1 1 2   0   0  2.318985e+03 -8.194707e+02  3.443967e+02  2.483512e+03 0.0 0.0 9.0
 2  1 1 2 103   0 -2.318985e+03  8.194707e+02  1.233717e+03  2.751596e+03 0.0022 0.0 9.0
#pdf 2 21 5.240940e-01 2.813072e-01 5000.0 5.794621e-02 2.726050e-01
</event>
<event>
4 7 1.0 5000.0 7.905138e-03 7.739137e-02
 2 -1 0 0 101   0  0.000000e+00  0.000000e+00  1.727292e+03  1.727292e+03 0.0 0.0 9.0
21 -1 0 0 103 101  0.000000e+00  0.000000e+00 -3.544384e+03  3.544384e+03 0.0 0.0 9.0
 2  1 1 2 103   0  7.266230e+02 -8.522132e+02 -3.258926e+03  3.445990e+03 0.0022 0.0 9.0
22  1 1 2   0   0 -7.266230e+02  8.522132e+02  1.441833e+03  1.825687e+03 0.0 0.0 9.0
#pdf 2 21 2.657372e-01 5.452899e-01 5000.0 2.927605e-01 4.832411e-02
</event>
<event>
4 7 1.0 5000.0 7.905138e-03 7.739137e-02
 2 -1 0 0 101   0  0.000000e+00  0.000000e+00  2.340246e+03  2.340246e+03 0.0 0.0 9.0
21 -1 0 0 103 101  0.000000e+00  0.000000e+00 -2.699768e+03  2.699768e+03 0.0 0.0 9.0
22  1 1 2   0   0 -2.299719e+03  1.638508e+02  8.240788e+02  2.448399e+03 0.0 0.0 9.0
 2  1 1 2 103   0  2.299719e+03 -1.638508e+02 -1.183601e+03  2.591614e+03 0.0022 0.0 9.0
#pdf 2 21 3.600378e-01 4.153489e-01 5000.0 1.811095e-01 1.292614e-01
</event>
<event>
4 7 1.0 5000.0 7.905138e-03 7.739137e-02
21 -1 0 0 103 101  0.000000e+00  0.000000e+00  1.553802e+03  1.553802e+03 0.0 0.0 9.0
 2 -1 0 0 101   0  0.000000e+00  0.000000e+00 -4.025700e+03  4.025700e+03 0.0 0.0 9.0
22  1 1 2   0   0 -2.741564e+02 -2.421535e+03 -6.087677e+02  2.511890e+03 0.0 0.0 9.0
 2  1 1 2 103   0  2.741564e+02  2.421535e+03 -1.863130e+03  3.067613e+03 0.0022 0.0 9.0
#pdf 21 2 2.390465e-01 6.193385e-01 5000.0 7.652421e-02 4.685180e-04
</event>
<event>
4 7 1.0 5000.0 7.905138e-03 7.739137e-02
 2 -1 0 0 101   0  0.000000e+00  0.000000e+00  1.684085e+03  1.684085e+03 0.0 0.0 9.0
21 -1 0 0 103 101  0.000000e+00  0.000000e+00 -3.699869e+03  3.699869e+03 0.0 0.0 9.0
22  1 1 2   0   0 -3.400899e+02 -9.225562e+02  1.466447e+03  1.765570e+03 0.0 0.0 9.0
 2  1 1 2 103   0  3.400899e+02  9.225562e+02 -3.482231e+03  3.618384e+03 0.0022 0.0 9.0
#pdf 2 21 2.590900e-01 5.692107e-01 5000.0 3.015038e-01 3.891261e-02
</event>
<event>
4 7 1.0 5000.0 7.905138e-03 7.739137e-02
21 -1 0 0 103 101  0.000000e+00  0.000000e+00  3.395371e+03  3.395371e+03 0.0 0.0 9.0
 2 -1 0 0 101   0  0.000000e+00  0.000000e+00 -1.848235e+03  1.848235e+03 0.0 0.0 9.0
 2  1 1 2 103   0  1.829738e+03  1.645567e+03  2.831025e+02  2.477090e+03 0.0022 0.0 9.0
22  1 1 2   0   0 -1.829738e+03 -1.645567e+03  1.264034e+03  2.766516e+03 0.0 0.0 9.0
#pdf 21 2 5.223648e-01 2.843439e-01 5000.0 2.061588e-03 4.363180e-02
</event>
<event>
4 7 1.0 5000.0 7.905138e-03 7.739137e-02
21 -1 0 0 103 101  0.000000e+00  0.000000e+00  1.654155e+03  1.654155e+03 0.0 0.0 9.0
 2 -1 0 0 101   0  0.000000e+00  0.000000e+00 -3.335024e+03  3.335024e+03 0.0 0.0 9.0
22  1 1 2   0   0 -9.187395e+02  1.594189e+03  7.100447e+02  1.972229e+03 0.0 0.0 9.0
 2  1 1 2 103   0  9.187395e+02 -1.594189e+03 -2.390914e+03  3.016950e+03 0.0022 0.0 9.0
#pdf 21 2 2.544854e-01 5.130806e-01 5000.0 6.312256e-02 2.350225e-03
</event>
<event>
4 7 1.0 5000.0 7.905138e-03 7.739137e-02
 2 -1 0 0 101   0  0.000000e+00  0.000000e+00  2.412752e+03  2.412752e+03 0.0 0.0 9.0
21 -1 0 0 103 101  0.000000e+00  0.000000e+00 -2.566964e+03  2.566964e+03 0.0 0.0 9.0
22  1 1 2   0   0  2.308359e+01  4.816726e+02  2.365562e+03  2.414213e+03 0.0 0.0 9.0
 2  1 1 2 103   0 -2.308359e+01 -4.816726e+02 -2.519775e+03  2.565503e+03 0.0022 0.0 9.0
#pdf 2 21 3.711926e-01 3.949176e-01 5000.0 1.697766e-01 1.471707e-01
</event>
<event>
4 7 1.0 5000.0 7.905138e-03 7.739137e-02
 2 -1 0 0 101   0  0.000000e+00  0.000000e+00  1.865133e+03  1.865133e+03 0.0 0.0 9.0
21 -1 0 0 103 101  0.000000e+00  0.000000e+00 -3.027892e+03  3.027892e+03 0.0 0.0 9.0
 2  1 1 2 103   0  2.004685e+03  1.251259e+03 -3.229613e+02  2.385103e+03 0.0022 0.0 9.0
22  1 1 2   0   0 -2.004685e+03 -1.251259e+03 -8.397979e+02  2.507922e+03 0.0 0.0 9.0
#pdf 2 21 2.869435e-01 4.658295e-01 5000.0 2.654507e-01 9.130169e-02
</event>
<event>
4 7 1.0 5000.0 7.905138e-03 7.739137e-02
21 -1 0 0 103 101  0.000000e+00  0.000000e+00  2.081911e+03  2.081911e+03 0.0 0.0 9.0
 2 -1 0 0 101   0  0.000000e+00  0.000000e+00 -2.883978e+03  2.883978e+03 0.0 0.0 9.0
22  1 1 2   0   0 -1.732917e+03  4.101387e+02  1.304504e+03  2.207474e+03 0.0 0.0 9.0
 2  1 1 2 103   0  1.732917e+03 -4.101387e+02 -2.106570e+03  2.758415e+03 0.0022 0.0 9.0
#pdf 21 2 3.202940e-01 4.436889e-01 5000.0 2.809152e-02 5.992408e-03
</event>
<event>
4 7 1.0 5000.0 7.905138e-03 7.739137e-02
21 -1 0 0 103 101  0.000000e+00  0.000000e+00  2.623145e+03  2.623145e+03 0.0 0.0 9.0
 2 -1 0 0 101   0  0.000000e+00  0.000000e+00 -2.445427e+03  2.445427e+03 0.0 0.0 9.0
22  1 1 2   0   0  2.001904e+03 -1.252698e+03  1.004757e+03  2.566400e+03 0.0 0.0 9.0
 2  1 1 2 103   0 -2.001904e+03  1.252698e+03 -8.270389e+02  2.502172e+03 0.0022 0.0 9.0
#pdf 21 2 4.035608e-01 3.762195e-01 5000.0 1.002005e-02 1.412158e-02
</event>
<event>
4 7 1.0 5000.0 7.905138e-03 7.739137e-02
21 -1 0 0 103 101  0.000000e+00  0.000000e+00  1.819142e+03  1.819142e+03 0.0 0.0 9.0
 2 -1 0 0 101   0  0.000000e+00  0.000000e+00 -3.219585e+03  3.219585e+03 0.0 0.0 9.0
22  1 1 2   0   0  1.661015e+03  1.430774e+03  3.669079e+02  2.222770e+03 0.0 0.0 9.0
 2  1 1 2 103   0 -1.661015e+03 -1.430774e+03 -1.767351e+03  2.815957e+03 0.0022 0.0 9.0
#pdf 21 2 2.798680e-01 4.953207e-01 5000.0 4.609973e-02 3.006151e-03
</event>
<event>
4 7 1.0 5000.0 7.905138e-03 7.739137e-02
 2 -1 0 0 101   0  0.000000e+00  0.000000e+00  2.425375e+03  2.425375e+03 0.0 0.0 9.0
21 -1 0 0 103 101  0.000000e+00  0.000000e+00 -2.533356e+03  2.533356e+03 0.0 0.0 9.0
22  1 1 2   0   0  1.979103e+02  1.636416e+03  1.797749e+03  2.439042e+03 0.0 0.0 9.0
 2  1 1 2 103   0 -1.979103e+02 -1.636416e+03 -1.905730e+03  2.519689e+03 0.0022 0.0 9.0
#pdf 2 21 3.731346e-01 3.897471e-01 5000.0 1.678551e-01 1.519313e-01
</event>
<event>
4 7 1.0 5000.0 7.905138e-03 7.739137e-02
 2 -1 0 0 101   0  0.000000e+00  0.000000e+00  2.721546e+03  2.721546e+03 0.0 0.0 9.0
21 -1 0 0 103 101  0.000000e+00  0.000000e+00 -2.134877e+03  2.134877e+03 0.0 0.0 9.0
22  1 1 2   0   0 -3.241202e+02  2.256939e+03 -4.943146e+02  2.333062e+03 0.0 0.0 9.0
 2  1 1 2 103   0  3.241202e+02 -2.256939e+03  1.080984e+03  2.523362e+03 0.0022 0.0 9.0
#pdf 2 21 4.186994e-01 3.284427e-01 5000.0 1.264646e-01 2.154981e-01
</event>
<event>
4 7 1.0 5000.0 7.905138e-03 7.739137e-02
 2 -1 0 0 101   0  0.000000e+00  0.000000e+00  2.467316e+03  2.467316e+03 0.0 0.0 9.0
21 -1 0 0 103 101  0.000000e+00  0.000000e+00 -2.583472e+03  2.583472e+03 0.0 0.0 9.0
22  1 1 2   0   0  2.028000e+03  1.323252e+03  6.565764e+02  2.508959e+03 0.0 0.0 9.0
 2  1 1 2 103   0 -2.028000e+03 -1.323252e+03 -7.727324e+02  2.541829e+03 0.0022 0.0 9.0
#pdf 2 21 3.795871e-01 3.974572e-01 5000.0 1.615603e-01 1.448639e-01
</event>
<event>
4 7 1.0 5000.0 7.905138e-03 7.739137e-02
21 -1 0 0 103 101  0.000000e+00  0.000000e+00  2.693857e+03  2.693857e+03 0.0 0.0 9.0
 2 -1 0 0 101   0  0.000000e+00  0.000000e+00 -2.406123e+03  2.406123e+03 0.0 0.0 9.0
22  1 1 2   0   0 -1.224421e+03  1.409402e+03  1.877561e+03  2.647802e+03 0.0 0.0 9.0
 2  1 1 2 103   0  1.224421e+03 -1.409402e+03 -1.589828e+03  2.452177e+03 0.0022 0.0 9.0
#pdf 21 2 4.144395e-01 3.701728e-01 5000.0 8.726675e-03 1.520307e-02
</event>
<event>
4 7 1.0 5000.0 7.905138e-03 7.739137e-02
21 -1 0 0 103 101  0.000000e+00  0.000000e+00  2.748385e+03  2.748385e+03 0.0 0.0 9.0
 2 -1 0 0 101   0  0.000000e+00  0.000000e+00 -2.280076e+03  2.280076e+03 0.0 0.0 9.0
 2  1 1 2 103   0  1.210479e+03 -8.107123e+02  2.278725e+03  2.704645e+03 0.0022 0.0 9.0
22  1 1 2   0   0 -1.210479e+03  8.107123e+02 -1.810416e+03  2.323816e+03 0.0 0.0 9.0
#pdf 21 2 4.228284e-01 3.507809e-01 5000.0 7.841696e-03 1.933260e-02
</event>
<event>
4 7 1.0 5000.0 7.905138e-03 7.739137e-02
21 -1 0 0 103 101  0.000000e+00  0.000000e+00  1.547119e+03  1.547119e+03 0.0 0.0 9.0
 2 -1 0 0 101   0  0.000000e+00  0.000000e+00 -4.131737e+03  4.131737e+03 0.0 0.0 9.0
22  1 1 2   0   0  9.956988e+02  2.278952e+03 -7.810359e+02  2.606733e+03 0.0 0.0 9.0
 2  1 1 2 103   0 -9.956988e+02 -2.278952e+03 -1.803582e+03  3.072124e+03 0.0022 0.0 9.0
#pdf 21 2 2.380184e-01 6.356519e-01 5000.0 7.751107e-02 3.556611e-04
</event>
<event>
4 7 1.0 5000.0 7.905138e-03 7.739137e-02
21 -1 0 0 103 101  0.000000e+00  0.000000e+00  3.090456e+03  3.090456e+03 0.0 0.0 9.0
 2 -1 0 0 101   0  0.000000e+00  0.000000e+00 -2.095101e+03  2.095101e+03 0.0 0.0 9.0
22  1 1 2   0   0  2.503058e+03  3.690888e+02  2.218243e+02  2.539829e+03 0.0 0.0 9.0
 2  1 1 2 103   0 -2.503058e+03 -3.690888e+02  7.735309e+02  2.645728e+03 0.0022 0.0 9.0
#pdf 21 2 4.754548e-01 3.223232e-01 5000.0 3.936598e-03 2.740227e-02
</event>
<event>
4 7 1.0 5000.0 7.905138e-03 7.739137e-02
21 -1 0 0 103 101  0.000000e+00  0.000000e+00  2.286465e+03  2.286465e+03 0.0 0.0 9.0
 2 -1 0 0 101   0  0.000000e+00  0.000000e+00 -2.537503e+03  2.537503e+03 0.0 0.0 9.0
 2  1 1 2 103   0 -1.341804e+03  1.088324e+03  1.555157e+03  2.324522e+03 0.0022 0.0 9.0
22  1 1 2   0   0  1.341804e+03 -1.088324e+03 -1.806195e+03  2.499446e+03 0.0 0.0 9.0
#pdf 21 2 3.517638e-01 3.903851e-01 5000.0 1.909896e-02 1.182602e-02
</event>
<event>
4 7 1.0 5000.0 7.905138e-03 7.739137e-02
 2 -1 0 0 101   0  0.000000e+00  0.000000e+00  5.183572e+03  5.183572e+03 0.0 0.0 9.0
21 -1 0 0 103 101  0.000000e+00  0.000000e+00 -1.083563e+03  1.083563e+03 0.0 0.0 9.0
 2  1 1 2 103   0 -5.474814e+02  2.294425e+03  1.746743e+03  2.935171e+03 0.0022 0.0 9.0
22  1 1 2   0   0  5.474814e+02 -2.294425e+03  2.353266e+03  3.331964e+03 0.0 0.0 9.0
#pdf 2 21 7.974726e-01 1.667020e-01 5000.0 1.791237e-03 4.276095e-01
</event>
<event>
4 7 1.0 5000.0 7.905138e-03 7.739137e-02
 2 -1 0 0 101   0  0.000000e+00  0.000000e+00  2.562320e+03  2.562320e+03 0.0 0.0 9.0
21 -1 0 0 103 101  0.000000e+00  0.000000e+00 -1.959534e+03  1.959534e+03 0.0 0.0 9.0
 2  1 1 2 103   0  1.915194e+03  1.093629e+02 -8.670624e+02  2.105166e+03 0.0022 0.0 9.0
22  1 1 2   0   0 -1.915194e+03 -1.093629e+02  1.469849e+03  2.416688e+03 0.0 0.0 9.0
#pdf 2 21 3.942031e-01 3.014668e-01 5000.0 1.478235e-01 2.474023e-01
</event>
<event>
4 7 1.0 5000.0 7.905138e-03 7.739137e-02
 2 -1 0 0 101   0  0.000000e+00  0.000000e+00  3.692255e+03  3.692255e+03 0.0 0.0 9.0
21 -1 0 0 103 101  0.000000e+00  0.000000e+00 -1.643791e+03  1.643791e+03 0.0 0.0 9.0
 2  1 1 2 103   0 -6.068583e+01 -1.314783e+03  3.279577e+03  3.533832e+03 0.0022 0.0 9.0
22  1 1 2   0   0  6.068583e+01  1.314783e+03 -1.231113e+03  1.802215e+03 0.0 0.0 9.0
#pdf 2 21 5.680393e-01 2.528910e-01 5000.0 3.934144e-02 3.097273e-01
</event>
<event>
4 7 1.0 5000.0 7.905138e-03 7.739137e-02
 2 -1 0 0 101   0  0.000000e+00  0.000000e+00  4.758791e+03  4.758791e+03 0.0 0.0 9.0
21 -1 0 0 103 101  0.000000e+00  0.000000e+00 -1.281388e+03  1.281388e+03 0.0 0.0 9.0
 2  1 1 2 103   0  2.195988e+03 -4.159872e+02  4.545658e+02  2.280798e+03 0.0022 0.0 9.0
22  1 1 2   0   0 -2.195988e+03  4.159872e+02  3.022837e+03  3.759382e+03 0.0 0.0 9.0
#pdf 2 21 7.321217e-01 1.971367e-01 5000.0 5.631964e-03 3.859916e-01
</event>
<event>
4 7 1.0 5000.0 7.905138e-03 7.739137e-02
 2 -1 0 0 101   0  0.000000e+00  0.000000e+00  2.361199e+03  2.361199e+03 0.0 0.0 9.0
21 -1 0 0 103 101  0.000000e+00  0.000000e+00 -2.592294e+03  2.592294e+03 0.0 0.0 9.0
 2  1 1 2 103   0  2.107187e+03  1.033115e+02  1.178151e+03  2.416392e+03 0.0022 0.0 9.0
22  1 1 2   0   0 -2.107187e+03 -1.033115e+02 -1.409247e+03  2.537102e+03 0.0 0.0 9.0
#pdf 2 21 3.632614e-01 3.988145e-01 5000.0 1.777915e-01 1.436400e-01
</event>
<event>
4 7 1.0 5000.0 7.905138e-03 7.739137e-02
 2 -1 0 0 101   0  0.000000e+00  0.000000e+00  2.330677e+03  2.330677e+03 0.0 0.0 9.0
21 -1 0 0 103 101  0.000000e+00  0.000000e+00 -2.475790e+03  2.475790e+03 0.0 0.0 9.0
 2  1 1 2 103   0 -1.548682e+03 -1.271632e+02  1.760131e+03  2.347903e+03 0.0022 0.0 9.0
22  1 1 2   0   0  1.548682e+03  1.271632e+02 -1.905244e+03  2.458565e+03 0.0 0.0 9.0
#pdf 2 21 3.585657e-01 3.808908e-01 5000.0 1.826362e-01 1.603046e-01
</event>
<event>
4 7 1.0 5000.0 7.905138e-03 7.739137e-02
21 -1 0 0 103 101  0.000000e+00  0.000000e+00  1.286805e+03  1.286805e+03 0.0 0.0 9.0
 2 -1 0 0 101   0  0.000000e+00  0.000000e+00 -4.710305e+03  4.710305e+03 0.0 0.0 9.0
22  1 1 2   0   0  1.425720e+03  1.827895e+03 -7.019735e+02  2.422116e+03 0.0 0.0 9.0
 2  1 1 2 103   0 -1.425720e+03 -1.827895e+03 -2.721527e+03  3.574995e+03 0.0022 0.0 9.0
#pdf 21 2 1.979700e-01 7.246624e-01 5000.0 1.291791e-01 6.487953e-05
</event>
<event>
4 7 1.0 5000.0 7.905138e-03 7.739137e-02
21 -1 0 0 103 101  0.000000e+00  0.000000e+00  2.214486e+03  2.214486e+03 0.0 0.0 9.0
 2 -1 0 0 101   0  0.000000e+00  0.000000e+00 -2.746067e+03  2.746067e+03 0.0 0.0 9.0
22  1 1 2   0   0 -1.546431e+03  1.766013e+03  4.941480e+02  2.398840e+03 0.0 0.0 9.0
 2  1 1 2 103   0  1.546431e+03 -1.766013e+03 -1.025729e+03  2.561712e+03 0.0022 0.0 9.0
#pdf 21 2 3.406902e-01 4.224718e-01 5000.0 2.187726e-02 7.877579e-03
</event>
<event>
4 7 1.0 5000.0 7.905138e-03 7.739137e-02
 2 -1 0 0 101   0  0.000000e+00  0.000000e+00  4.751085e+03  4.751085e+03 0.0 0.0 9.0
21 -1 0 0 103 101  0.000000e+00  0.000000e+00 -1.297052e+03  1.297052e+03 0.0 0.0 9.0
22  1 1 2   0   0  8.408418e+02 -8.331017e+01 -1.116482e+03  1.400174e+03 0.0 0.0 9.0
 2  1 1 2 103   0 -8.408418e+02  8.331017e+01  4.570515e+03  4.647963e+03 0.0022 0.0 9.0
#pdf 2 21 7.309362e-01 1.995465e-01 5000.0 5.734742e-03 3.826538e-01
</event>
<event>
4 7 1.0 5000.0 7.905138e-03 7.739137e-02
21 -1 0 0 103 101  0.000000e+00  0.000000e+00  3.408052e+03  3.408052e+03 0.0 0.0 9.0
 2 -1 0 0 101   0  0.000000e+00  0.000000e+00 -1.977760e+03  1.977760e+03 0.0 0.0 9.0
 2  1 1 2 103   0  1.344648e+03  2.200716e+03  4.055658e+02  2.610692e+03 0.0022 0.0 9.0
22  1 1 2   0   0 -1.344648e+03 -2.200716e+03  1.024726e+03  2.775120e+03 0.0 0.0 9.0
#pdf 21 2 5.243157e-01 3.042708e-01 5000.0 2.005557e-03 3.421294e-02
</event>
<event>
4 7 1.0 5000.0 7.905138e-03 7.739137e-02
 2 -1 0 0 101   0  0.000000e+00  0.000000e+00  2.433664e+03  2.433664e+03 0.0 0.0 9.0
21 -1 0 0 103 101  0.000000e+00  0.000000e+00 -2.159461e+03  2.159461e+03 0.0 0.0 9.0
22  1 1 2   0   0 -5.304824e+02  1.910794e+03 -1.015109e+03  2.227777e+03 0.0 0.0 9.0
 2  1 1 2 103   0  5.304824e+02 -1.910794e+03  1.289312e+03  2.365348e+03 0.0022 0.0 9.0
#pdf 2 21 3.744098e-01 3.322247e-01 5000.0 1.666009e-01 2.112044e-01
</event>
<event>
4 7 1.0 5000.0 7.905138e-03 7.739137e-02
 2 -1 0 0 101   0  0.000000e+00  0.000000e+00  2.316190e+03  2.316190e+03 0.0 0.0 9.0
21 -1 0 0 103 101  0.000000e+00  0.000000e+00 -2.669735e+03  2.669735e+03 0.0 0.0 9.0
22  1 1 2   0   0 -2.696043e+01  1.892858e+03  1.439740e+03  2.378338e+03 0.0 0.0 9.0
 2  1 1 2 103   0  2.696043e+01 -1.892858e+03 -1.793285e+03  2.607587e+03 0.0022 0.0 9.0
#pdf 2 21 3.563370e-01 4.107285e-01 5000.0 1.849617e-01 1.331817e-01
</event>
<event>
4 7 1.0 5000.0 7.905138e-03 7.739137e-02
21 -1 0 0 103 101  0.000000e+00  0.000000e+00  3.803288e+03  3.803288e+03 0.0 0.0 9.0
 2 -1 0 0 101   0  0.000000e+00  0.000000e+00 -1.614991e+03  1.614991e+03 0.0 0.0 9.0
22  1 1 2   0   0  9.455671e+02 -2.150631e+03  2.313712e+02  2.360687e+03 0.0 0.0 9.0
 2  1 1 2 103   0 -9.455671e+02  2.150631e+03  1.956926e+03  3.057592e+03 0.0022 0.0 9.0
#pdf 21 2 5.851212e-01 2.484601e-01 5000.0 8.118399e-04 6.800776e-02
</event>
<event>
4 7 1.0 5000.0 7.905138e-03 7.739137e-02
21 -1 0 0 103 101  0.000000e+00  0.000000e+00  2.610977e+03  2.610977e+03 0.0 0.0 9.0
 2 -1 0 0 101   0  0.000000e+00  0.000000e+00 -2.337649e+03  2.337649e+03 0.0 0.0 9.0
 2  1 1 2 103   0 -1.546733e+03  1.593809e+03  1.220418e+03  2.534172e+03 0.0022 0.0 9.0
22  1 1 2   0   0  1.546733e+03 -1.593809e+03 -9.470898e+02  2.414454e+03 0.0 0.0 9.0
#pdf 21 2 4.016888e-01 3.596383e-01 5000.0 1.025938e-02 1.732503e-02
</event>
<event>
4 7 1.0 5000.0 7.905138e-03 7.739137e-02
21 -1 0 0 103 101  0.000000e+00  0.000000e+00  2.819052e+03  2.819052e+03 0.0 0.0 9.0
 2 -1 0 0 101   0  0.000000e+00  0.000000e+00 -2.151743e+03  2.151743e+03 0.0 0.0 9.0
22  1 1 2   0   0 -1.319442e+03 -1.654522e+03 -9.378162e+02  2.314707e+03 0.0 0.0 9.0
 2  1 1 2 103   0  1.319442e+03  1.654522e+03  1.605126e+03  2.656087e+03 0.0022 0.0 9.0
#pdf 21 2 4.337003e-01 3.310373e-01 5000.0 6.820889e-03 2.463129e-02
</event>
<event>
4 7 1.0 5000.0 7.905138e-03 7.739137e-02
 2 -1 0 0 101   0  0.000000e+00  0.000000e+00  2.485047e+03  2.485047e+03 0.0 0.0 9.0
21 -1 0 0 103 101  0.000000e+00  0.000000e+00 -2.508366e+03  2.508366e+03 0.0 0.0 9.0
 2  1 1 2 103   0  1.068220e+03  6.623762e+02  2.145578e+03  2.486633e+03 0.0022 0.0 9.0
22  1 1 2   0   0 -1.068220e+03 -6.623762e+02 -2.168898e+03  2.506781e+03 0.0 0.0 9.0
#pdf 2 21 3.823150e-01 3.859025e-01 5000.0 1.589394e-01 1.555316e-01
</event>
<event>
4 7 1.0 5000.0 7.905138e-03 7.739137e-02
 2 -1 0 0 101   0  0.000000e+00  0.000000e+00  2.825610e+03  2.825610e+03 0.0 0.0 9.0
21 -1 0 0 103 101  0.000000e+00  0.000000e+00 -2.265171e+03  2.265171e+03 0.0 0.0 9.0
 2  1 1 2 103   0  1.377491e+03  1.604581e+03  1.677354e+03  2.699200e+03 0.0022 0.0 9.0
22  1 1 2   0   0 -1.377491e+03 -1.604581e+03 -1.116915e+03  2.391581e+03 0.0 0.0 9.0
#pdf 2 21 4.347092e-01 3.484879e-01 5000.0 1.136679e-01 1.932898e-01
</event>
<event>
4 7 1.0 5000.0 7.905138e-03 7.739137e-02
21 -1 0 0 103 101  0.000000e+00  0.000000e+00  1.936515e+03  1.936515e+03 0.0 0.0 9.0
 2 -1 0 0 101   0  0.000000e+00  0.000000e+00 -3.227744e+03  3.227744e+03 0.0 0.0 9.0
 2  1 1 2 103   0  1.995353e+01  2.500021e+03 -6.545145e+02  2.584355e+03 0.0022 0.0 9.0
22  1 1 2   0   0 -1.995353e+01 -2.500021e+03 -6.367147e+02  2.579904e+03 0.0 0.0 9.0
#pdf 21 2 2.979254e-01 4.965760e-01 5000.0 3.696703e-02 2.954810e-03
</event>
<event>
4 7 1.0 5000.0 7.905138e-03 7.739137e-02
 2 -1 0 0 101   0  0.000000e+00  0.000000e+00  1.865984e+03  1.865984e+03 0.0 0.0 9.0
21 -1 0 0 103 101  0.000000e+00  0.000000e+00 -3.197432e+03  3.197432e+03 0.0 0.0 9.0
 2  1 1 2 103   0  2.411686e+03  1.646692e+01 -1.066958e+03  2.637214e+03 0.0022 0.0 9.0
22  1 1 2   0   0 -2.411686e+03 -1.646692e+01 -2.644903e+02  2.426202e+03 0.0 0.0 9.0
#pdf 2 21 2.870744e-01 4.919126e-01 5000.0 2.652851e-01 7.505074e-02
</event>
<event>
4 7 1.0 5000.0 7.905138e-03 7.739137e-02
21 -1 0 0 103 101  0.000000e+00  0.000000e+00  1.634021e+03  1.634021e+03 0.0 0.0 9.0
 2 -1 0 0 101   0  0.000000e+00  0.000000e+00 -3.809373e+03  3.809373e+03 0.0 0.0 9.0
22  1 1 2   0   0  1.888874e+03 -1.547929e+03 -1.644637e+03  2.944276e+03 0.0 0.0 9.0
 2  1 1 2 103   0 -1.888874e+03  1.547929e+03 -5.307151e+02  2.499118e+03 0.0022 0.0 9.0
#pdf 21 2 2.513878e-01 5.860574e-01 5000.0 6.560330e-02 8.000889e-04
</event>
<event>
4 7 1.0 5000.0 7.905138e-03 7.739137e-02
21 -1 0 0 103 101  0.000000e+00  0.000000e+00  1.896140e+03  1.896140e+03 0.0 0.0 9.0
 2 -1 0 0 101   0  0.000000e+00  0.000000e+00 -3.283409e+03  3.283409e+03 0.0 0.0 9.0
22  1 1 2   0   0 -1.476190e+02  1.755374e+03  1.140485e+03  2.098532e+03 0.0 0.0 9.0
 2  1 1 2 103   0  1.476190e+02 -1.755374e+03 -2.527754e+03  3.081017e+03 0.0022 0.0 9.0
#pdf 21 2 2.917139e-01 5.051398e-01 5000.0 3.990176e-02 2.624648e-03
</event>
<event>
4 7 1.0 5000.0 7.905138e-03 7.739137e-02
 2 -1 0 0 101   0  0.000000e+00  0.000000e+00  3.252242e+03  3.252242e+03 0.0 0.0 9.0
21 -1 0 0 103 101  0.000000e+00  0.000000e+00 -1.920568e+03  1.920568e+03 0.0 0.0 9.0
 2  1 1 2 103   0  1.633507e+03 -9.196208e+02 -1.044726e+03  2.146042e+03 0.0022 0.0 9.0
22  1 1 2   0   0 -1.633507e+03  9.196208e+02  2.376400e+03  3.026768e+03 0.0 0.0 9.0
#pdf 2 21 5.003449e-01 2.954720e-01 5000.0 7.026299e-02 2.547691e-01
</event>
<event>
4 7 1.0 5000.0 7.905138e-03 7.739137e-02
 2 -1 0 0 101   0  0.000000e+00  0.000000e+00  2.310515e+03  2.310515e+03 0.0 0.0 9.0
21 -1 0 0 103 101  0.000000e+00  0.000000e+00 -2.590282e+03  2.590282e+03 0.0 0.0 9.0
22  1 1 2   0   0  1.163430e+03 -5.855602e+02 -2.214120e+03  2.568809e+03 0.0 0.0 9.0
 2  1 1 2 103   0 -1.163430e+03  5.855602e+02  1.934352e+03  2.331988e+03 0.0022 0.0 9.0
#pdf 2 21 3.554638e-01 3.985050e-01 5000.0 1.858774e-01 1.439186e-01
</event>
<event>
4 7 1.0 5000.0 7.905138e-03 7.739137e-02
21 -1 0 0 103 101  0.000000e+00  0.000000e+00  3.436548e+03  3.436548e+03 0.0 0.0 9.0
 2 -1 0 0 101   0  0.000000e+00  0.000000e+00 -1.929594e+03  1.929594e+03 0.0 0.0 9.0
 2  1 1 2 103   0  5.766700e+02 -2.482184e+03  1.139633e+03  2.791514e+03 0.0022 0.0 9.0
22  1 1 2   0   0 -5.766700e+02  2.482184e+03  3.673210e+02  2.574629e+03 0.0 0.0 9.0
#pdf 21 2 5.286997e-01 2.968607e-01 5000.0 1.884721e-03 3.746160e-02
</event>
<event>
4 7 1.0 5000.0 7.905138e-03 7.739137e-02
 2 -1 0 0 101   0  0.000000e+00  0.000000e+00  1.430613e+03  1.430613e+03 0.0 0.0 9.0
21 -1 0 0 103 101  0.000000e+00  0.000000e+00 -4.233149e+03  4.233149e+03 0.0 0.0 9.0
 2  1 1 2 103   0 -5.632303e+02  2.094469e+03 -2.739298e+03  3.493963e+03 0.0022 0.0 9.0
22  1 1 2   0   0  5.632303e+02 -2.094469e+03 -6.323861e+01  2.169799e+03 0.0 0.0 9.0
#pdf 2 21 2.200943e-01 6.512538e-01 5000.0 3.542829e-01 1.655145e-02
</event>
<event>
4 7 1.0 5000.0 7.905138e-03 7.739137e-02
21 -1 0 0 103 101  0.000000e+00  0.000000e+00  1.936679e+03  1.936679e+03 0.0 0.0 9.0
 2 -1 0 0 101   0  0.000000e+00  0.000000e+00 -3.179038e+03  3.179038e+03 0.0 0.0 9.0
22  1 1 2   0   0  1.780207e+03 -1.087567e+03  7.637224e+02  2.221533e+03 0.0 0.0 9.0
 2  1 1 2 103   0 -1.780207e+03  1.087567e+03 -2.006081e+03  2.894183e+03 0.0022 0.0 9.0
#pdf 21 2 2.979507e-01 4.890827e-01 5000.0 3.695532e-02 3.272983e-03
</event>
<event>
4 7 1.0 5000.0 7.905138e-03 7.739137e-02
 2 -1 0 0 101   0  0.000000e+00  0.000000e+00  2.264488e+03  2.264488e+03 0.0 0.0 9.0
21 -1 0 0 103 101  0.000000e+00  0.000000e+00 -2.740088e+03  2.740088e+03 0.0 0.0 9.0
 2  1 1 2 103   0  9.852331e+02 -1.749363e+03 -1.718933e+03  2.643045e+03 0.0022 0.0 9.0
22  1 1 2   0   0 -9.852331e+02  1.749363e+03  1.243333e+03  2.361532e+03 0.0 0.0 9.0
#pdf 2 21 3.483828e-01 4.215520e-01 5000.0 1.934028e-01 1.241149e-01
</event>
<event>
4 7 1.0 5000.0 7.905138e-03 7.739137e-02
 2 -1 0 0 101   0  0.000000e+00  0.000000e+00  4.219575e+03  4.219575e+03 0.0 0.0 9.0
21 -1 0 0 103 101  0.000000e+00  0.000000e+00 -1.455080e+03  1.455080e+03 0.0 0.0 9.0
 2  1 1 2 103   0 -1.970566e+03 -4.141647e+02 -2.712398e+02  2.031806e+03 0.0022 0.0 9.0
22  1 1 2   0   0  1.970566e+03  4.141647e+02  3.035735e+03  3.642849e+03 0.0 0.0 9.0
#pdf 2 21 6.491654e-01 2.238585e-01 5000.0 1.695602e-02 3.491305e-01
</event>
<event>
4 7 1.0 5000.0 7.905138e-03 7.739137e-02
21 -1 0 0 103 101  0.000000e+00  0.000000e+00  1.274274e+03  1.274274e+03 0.0 0.0 9.0
 2 -1 0 0 101   0  0.000000e+00  0.000000e+00 -4.012977e+03  4.012977e+03 0.0 0.0 9.0
 2  1 1 2 103   0  1.389490e+03  1.704042e+03 -1.987063e+03  2.963589e+03 0.0022 0.0 9.0
22  1 1 2   0   0 -1.389490e+03 -1.704042e+03 -7.516397e+02  2.323662e+03 0.0 0.0 9.0
#pdf 21 2 1.960422e-01 6.173810e-01 5000.0 1.324518e-01 4.839035e-04
</event>
<event>
4 7 1.0 5000.0 7.905138e-03 7.739137e-02
21 -1 0 0 103 101  0.000000e+00  0.000000e+00  2.449893e+03  2.449893e+03 0.0 0.0 9.0
 2 -1 0 0 101   0  0.000000e+00  0.000000e+00 -2.538539e+03  2.538539e+03 0.0 0.0 9.0
 2  1 1 2 103   0  1.372343e+03  5.005890e+02 -2.065838e+03  2.530139e+03 0.0022 0.0 9.0
22  1 1 2   0   0 -1.372343e+03 -5.005890e+02  1.977192e+03  2.458293e+03 0.0 0.0 9.0
#pdf 21 2 3.769067e-01 3.905444e-01 5000.0 1.400265e-02 1.180232e-02
</event>
<event>
4 7 1.0 5000.0 7.905138e-03 7.739137e-02
21 -1 0 0 103 101  0.000000e+00  0.000000e+00  3.435171e+03  3.435171e+03 0.0 0.0 9.0
 2 -1 0 0 101   0  0.000000e+00  0.000000e+00 -1.958744e+03  1.958744e+03 0.0 0.0 9.0
 2  1 1 2 103   0 -2.105084e+03  1.390516e+03  1.365243e+03  2.868589e+03 0.0022 0.0 9.0
22  1 1 2   0   0  2.105084e+03 -1.390516e+03  1.111840e+02  2.525327e+03 0.0 0.0 9.0
#pdf 21 2 5.284879e-01 3.013452e-01 5000.0 1.890413e-03 3.543355e-02
</event>
<event>
4 7 1.0 5000.0 7.905138e-03 7.739137e-02
21 -1 0 0 103 101  0.000000e+00  0.000000e+00  3.274322e+03  3.274322e+03 0.0 0.0 9.0
 2 -1 0 0 101   0  0.000000e+00  0.000000e+00 -1.986871e+03  1.986871e+03 0.0 0.0 9.0
22  1 1 2   0   0  2.371277e+03  1.736905e+02 -3.085533e+02  2.397567e+03 0.0 0.0 9.0
 2  1 1 2 103   0 -2.371277e+03 -1.736905e+02  1.596005e+03  2.863626e+03 0.0022 0.0 9.0
#pdf 21 2 5.037419e-01 3.056724e-01 5000.0 2.675969e-03 3.363604e-02
</event>
<event>
4 7 1.0 5000.0 7.905138e-03 7.739137e-02
21 -1 0 0 103 101  0.000000e+00  0.000000e+00  1.962720e+03  1.962720e+03 0.0 0.0 9.0
 2 -1 0 0 101   0  0.000000e+00  0.000000e+00 -2.570166e+03  2.570166e+03 0.0 0.0 9.0
 2  1 1 2 103   0 -6.234983e+01  6.382401e+02 -2.475820e+03  2.557523e+03 0.0022 0.0 9.0
22  1 1 2   0   0  6.234983e+01 -6.382401e+02  1.868374e+03  1.975363e+03 0.0 0.0 9.0
#pdf 21 2 3.019569e-01 3.954102e-01 5000.0 3.517675e-02 1.110202e-02
</event>
<event>
4 7 1.0 5000.0 7.905138e-03 7.739137e-02
 2 -1 0 0 101   0  0.000000e+00  0.000000e+00  2.395505e+03  2.395505e+03 0.0 0.0 9.0
21 -1 0 0 103 101  0.000000e+00  0.000000e+00 -2.569284e+03  2.569284e+03 0.0 0.0 9.0
22  1 1 2   0   0 -1.006192e+03 -2.088068e+03  7.981210e+02  2.451417e+03 0.0 0.0 9.0
 2  1 1 2 103   0  1.006192e+03  2.088068e+03 -9.719004e+02  2.513372e+03 0.0022 0.0 9.0
#pdf 2 21 3.685392e-01 3.952745e-01 5000.0 1.724330e-01 1.468452e-01
</event>
<event>
4 7 1.0 5000.0 7.905138e-03 7.739137e-02
 2 -1 0 0 101   0  0.000000e+00  0.000000e+00  2.090240e+03  2.090240e+03 0.0 0.0 9.0
21 -1 0 0 103 101  0.000000e+00  0.000000e+00 -3.008891e+03  3.008891e+03 0.0 0.0 9.0
22  1 1 2   0   0  1.313416e+03  1.257586e+01  1.712584e+03  2.158278e+03 0.0 0.0 9.0
 2  1 1 2 103   0 -1.313416e+03 -1.257586e+01 -2.631235e+03  2.940853e+03 0.0022 0.0 9.0
#pdf 2 21 3.215754e-01 4.629063e-01 5000.0 2.234129e-01 9.325724e-02
</event>
<event>
4 7 1.0 5000.0 7.905138e-03 7.739137e-02
 2 -1 0 0 101   0  0.000000e+00  0.000000e+00  3.020005e+03  3.020005e+03 0.0 0.0 9.0
21 -1 0 0 103 101  0.000000e+00  0.000000e+00 -2.143955e+03  2.143955e+03 0.0 0.0 9.0
 2  1 1 2 103   0  1.382380e+03  1.502739e+03 -1.102714e+03  2.320599e+03 0.0022 0.0 9.0
22  1 1 2   0   0 -1.382380e+03 -1.502739e+03  1.978763e+03  2.843361e+03 0.0 0.0 9.0
#pdf 2 21 4.646161e-01 3.298393e-01 5000.0 9.211036e-02 2.139068e-01
</event>
<event>
4 7 1.0 5000.0 7.905138e-03 7.739137e-02
21 -1 0 0 103 101  0.000000e+00  0.000000e+00  2.029457e+03  2.029457e+03 0.0 0.0 9.0
 2 -1 0 0 101   0  0.000000e+00  0.000000e+00 -3.074840e+03  3.074840e+03 0.0 0.0 9.0
 2  1 1 2 103   0  1.089806e+02  7.210800e+02  1.918281e+03  2.052226e+03 0.0022 0.0 9.0
22  1 1 2   0   0 -1.089806e+02 -7.210800e+02 -2.963664e+03  3.052071e+03 0.0 0.0 9.0
#pdf 21 2 3.122242e-01 4.730523e-01 5000.0 3.102999e-02 4.065569e-03
</event>
<event>
4 7 1.0 5000.0 7.905138e-03 7.739137e-02
 2 -1 0 0 101   0  0.000000e+00  0.000000e+00  3.693214e+03  3.693214e+03 0.0 0.0 9.0
21 -1 0 0 103 101  0.000000e+00  0.000000e+00 -1.432031e+03  1.432031e+03 0.0 0.0 9.0
 2  1 1 2 103   0  2.073339e+03  5.914069e+02  2.389331e+02  2.169236e+03 0.0022 0.0 9.0
22  1 1 2   0   0 -2.073339e+03 -5.914069e+02  2.022250e+03  2.956009e+03 0.0 0.0 9.0
#pdf 2 21 5.681868e-01 2.203125e-01 5000.0 3.928721e-02 3.539839e-01
</event>
<event>
4 7 1.0 5000.0 7.905138e-03 7.739137e-02
 2 -1 0 0 101   0  0.000000e+00  0.000000e+00  1.709983e+03  1.709983e+03 0.0 0.0 9.0
21 -1 0 0 103 101  0.000000e+00  0.000000e+00 -3.615051e+03  3.615051e+03 0.0 0.0 9.0
22  1 1 2   0   0 -1.457860e+03  1.432273e+03  5.637725e+02  2.120048e+03 0.0 0.0 9.0
 2  1 1 2 103   0  1.457860e+03 -1.432273e+03 -2.468840e+03  3.204986e+03 0.0022 0.0 9.0
#pdf 2 21 2.630743e-01 5.561617e-01 5000.0 2.962567e-01 4.387018e-02
</event>
<event>
4 7 1.0 5000.0 7.905138e-03 7.739137e-02
21 -1 0 0 103 101  0.000000e+00  0.000000e+00  3.632271e+03  3.632271e+03 0.0 0.0 9.0
 2 -1 0 0 101   0  0.000000e+00  0.000000e+00 -1.731848e+03  1.731848e+03 0.0 0.0 9.0
 2  1 1 2 103   0 -4.134473e+01 -6.667725e+02 -1.634955e+03  1.766175e+03 0.0022 0.0 9.0
22  1 1 2   0   0  4.134473e+01  6.667725e+02  3.535379e+03  3.597944e+03 0.0 0.0 9.0
#pdf 21 2 5.588110e-01 2.664381e-01 5000.0 1.214590e-03 5.438045e-02
</event>
<event>
4 7 1.0 5000.0 7.905138e-03 7.739137e-02
21 -1 0 0 103 101  0.000000e+00  0.000000e+00  1.615931e+03  1.615931e+03 0.0 0.0 9.0
 2 -1 0 0 101   0  0.000000e+00  0.000000e+00 -4.108982e+03  4.108982e+03 0.0 0.0 9.0
 2  1 1 2 103   0 -2.519758e+02 -1.383807e+03 -3.644913e+03  3.906892e+03 0.0022 0.0 9.0
22  1 1 2   0   0  2.519758e+02  1.383807e+03  1.151862e+03  1.818021e+03 0.0 0.0 9.0
#pdf 21 2 2.486048e-01 6.321511e-01 5000.0 6.788781e-02 3.775412e-04
</event>
<event>
4 7 1.0 5000.0 7.905138e-03 7.739137e-02
 2 -1 0 0 101   0  0.000000e+00  0.000000e+00  3.890114e+03  3.890114e+03 0.0 0.0 9.0
21 -1 0 0 103 101  0.000000e+00  0.000000e+00 -1.541074e+03  1.541074e+03 0.0 0.0 9.0
22  1 1 2   0   0  1.012179e+03  2.222734e+03  9.827251e+02  2.632641e+03 0.0 0.0 9.0
 2  1 1 2 103   0 -1.012179e+03 -2.222734e+03  1.366315e+03  2.798547e+03 0.0022 0.0 9.0
#pdf 2 21 5.984791e-01 2.370883e-01 5000.0 2.930803e-02 3.310247e-01
</event>
<event>
4 7 1.0 5000.0 7.905138e-03 7.739137e-02
21 -1 0 0 103 101  0.000000e+00  0.000000e+00  2.679872e+03  2.679872e+03 0.0 0.0 9.0
 2 -1 0 0 101   0  0.000000e+00  0.000000e+00 -2.250750e+03  2.250750e+03 0.0 0.0 9.0
 2  1 1 2 103   0  1.634169e+03 -3.841337e+01 -1.625380e+03  2.305178e+03 0.0022 0.0 9.0
22  1 1 2   0   0 -1.634169e+03  3.841337e+01  2.054502e+03  2.625445e+03 0.0 0.0 9.0
#pdf 21 2 4.122880e-01 3.462693e-01 5000.0 8.968770e-03 2.043454e-02
</event>
<event>
4 7 1.0 5000.0 7.905138e-03 7.739137e-02
21 -1 0 0 103 101  0.000000e+00  0.000000e+00  2.141026e+03  2.141026e+03 0.0 0.0 9.0
 2 -1 0 0 101   0  0.000000e+00  0.000000e+00 -2.684708e+03  2.684708e+03 0.0 0.0 9.0
22  1 1 2   0   0  1.896704e+03  1.463593e+03 -1.793746e+02  2.402449e+03 0.0 0.0 9.0
 2  1 1 2 103   0 -1.896704e+03 -1.463593e+03 -3.643078e+02  2.423284e+03 0.0022 0.0 9.0
#pdf 21 2 3.293886e-01 4.130320e-01 5000.0 2.513369e-02 8.884289e-03
</event>
<event>
4 7 1.0 5000.0 7.905138e-03 7.739137e-02
21 -1 0 0 103 101  0.000000e+00  0.000000e+00  3.406030e+03  3.406030e+03 0.0 0.0 9.0
 2 -1 0 0 101   0  0.000000e+00  0.000000e+00 -1.819461e+03  1.819461e+03 0.0 0.0 9.0
22  1 1 2   0   0  2.077764e+03  3.967239e+02 -5.842393e+02  2.194500e+03 0.0 0.0 9.0
 2  1 1 2 103   0 -2.077764e+03 -3.967239e+02  2.170809e+03  3.030991e+03 0.0022 0.0 9.0
#pdf 21 2 5.240046e-01 2.799170e-01 5000.0 2.014390e-03 4.607190e-02
</event>
<event>
4 7 1.0 5000.0 7.905138e-03 7.739137e-02
21 -1 0 0 103 101  0.000000e+00  0.000000e+00  1.456813e+03  1.456813e+03 0.0 0.0 9.0
 2 -1 0 0 101   0  0.000000e+00  0.000000e+00 -4.280084e+03  4.280084e+03 0.0 0.0 9.0
22  1 1 2   0   0 -6.827728e+02 -2.042862e+03  3.950981e+01  2.154304e+03 0.0 0.0 9.0
 2  1 1 2 103   0  6.827728e+02  2.042862e+03 -2.862780e+03  3.582594e+03 0.0022 0.0 9.0
#pdf 21 2 2.241251e-01 6.584745e-01 5000.0 9.227205e-02 2.384238e-04
</event>
<event>
4 7 1.0 5000.0 7.905138e-03 7.739137e-02
 2 -1 0 0 101   0  0.000000e+00  0.000000e+00  2.669252e+03  2.669252e+03 0.0 0.0 9.0
21 -1 0 0 103 101  0.000000e+00  0.000000e+00 -2.387055e+03  2.387055e+03 0.0 0.0 9.0
22  1 1 2   0   0 -1.134661e+03 -1.031453e+03 -1.867101e+03  2.416074e+03 0.0 0.0 9.0
 2  1 1 2 103   0  1.134661e+03  1.031453e+03  2.149297e+03  2.640233e+03 0.0022 0.0 9.0
#pdf 2 21 4.106541e-01 3.672393e-01 5000.0 1.332453e-01 1.737445e-01
</event>
<event>
4 7 1.0 5000.0 7.905138e-03 7.739137e-02
 2 -1 0 0 101   0  0.000000e+00  0.000000e+00  1.534821e+03  1.534821e+03 0.0 0.0 9.0
21 -1 0 0 103 101  0.000000e+00  0.000000e+00 -3.744779e+03  3.744779e+03 0.0 0.0 9.0
22  1 1 2   0   0 -2.103890e+03 -1.149247e+03 -1.128125e+03  2.649489e+03 0.0 0.0 9.0
 2  1 1 2 103   0  2.103890e+03  1.149247e+03 -1.081833e+03  2.630112e+03 0.0022 0.0 9.0
#pdf 2 21 2.361263e-01 5.761198e-01 5000.0 3.323376e-01 3.646037e-02
</event>
<event>
4 7 1.0 5000.0 7.905138e-03 7.739137e-02
21 -1 0 0 103 101  0.000000e+00  0.000000e+00  1.680781e+03  1.680781e+03 0.0 0.0 9.0
 2 -1 0 0 101   0  0.000000e+00  0.000000e+00 -3.682974e+03  3.682974e+03 0.0 0.0 9.0
 2  1 1 2 103   0  1.480627e+03 -1.625103e+03  2.545951e+02  2.213150e+03 0.0022 0.0 9.0
22  1 1 2   0   0 -1.480627e+03  1.625103e+03 -2.256788e+03  3.150605e+03 0.0 0.0 9.0
#pdf 21 2 2.585817e-01 5.666114e-01 5000.0 5.996432e-02 1.079629e-03
</event>
<event>
4 7 1.0 5000.0 7.905138e-03 7.739137e-02
 2 -1 0 0 101   0  0.000000e+00  0.000000e+00  1.484451e+03  1.484451e+03 0.0 0.0 9.0
21 -1 0 0 103 101  0.000000e+00  0.000000e+00 -4.145083e+03  4.145083e+03 0.0 0.0 9.0
22  1 1 2   0   0  8.780375e+02  8.118697e+02 -3.796390e+03  3.980284e+03 0.0 0.0 9.0
 2  1 1 2 103   0 -8.780375e+02 -8.118697e+02  1.135757e+03  1.649250e+03 0.0022 0.0 9.0
#pdf 2 21 2.283770e-01 6.377051e-01 5000.0 3.429527e-01 1.932262e-02
</event>
<event>
4 7 1.0 5000.0 7.905138e-03 7.739137e-02
 2 -1 0 0 101   0  0.000000e+00  0.000000e+00  2.157739e+03  2.157739e+03 0.0 0.0 9.0
21 -1 0 0 103 101  0.000000e+00  0.000000e+00 -2.848030e+03  2.848030e+03 0.0 0.0 9.0
 2  1 1 2 103   0 -1.020066e+03 -7.023817e+02 -2.513284e+03  2.801869e+03 0.0022 0.0 9.0
22  1 1 2   0   0  1.020066e+03  7.023817e+02  1.822992e+03  2.203900e+03 0.0 0.0 9.0
#pdf 2 21 3.319598e-01 4.381585e-01 5000.0 2.115035e-01 1.110298e-01
</event>
<event>
4 7 1.0 5000.0 7.905138e-03 7.739137e-02
 2 -1 0 0 101   0  0.000000e+00  0.000000e+00  1.910117e+03  1.910117e+03 0.0 0.0 9.0
21 -1 0 0 103 101  0.000000e+00  0.000000e+00 -3.285527e+03  3.285527e+03 0.0 0.0 9.0
22  1 1 2   0   0  2.364073e+03  6.202153e+02 -1.257798e+03  2.748739e+03 0.0 0.0 9.0
 2  1 1 2 103   0 -2.364073e+03 -6.202153e+02 -1.176114e+02  2.446905e+03 0.0022 0.0 9.0
#pdf 2 21 2.938641e-01 5.054657e-01 5000.0 2.567652e-01 6.746331e-02
</event>
<event>
4 7 1.0 5000.0 7.905138e-03 7.739137e-02
 2 -1 0 0 101   0  0.000000e+00  0.000000e+00  1.944526e+03  1.944526e+03 0.0 0.0 9.0
21 -1 0 0 103 101  0.000000e+00  0.000000e+00 -3.221864e+03  3.221864e+03 0.0 0.0 9.0
22  1 1 2   0   0  3.692707e+02  1.838710e+03 -2.349425e+03  3.006162e+03 0.0 0.0 9.0
 2  1 1 2 103   0 -3.692707e+02 -1.838710e+03  1.072086e+03  2.160228e+03 0.0022 0.0 9.0
#pdf 2 21 2.991578e-01 4.956714e-01 5000.0 2.502313e-01 7.288884e-02
</event>
<event>
4 7 1.0 5000.0 7.905138e-03 7.739137e-02
 2 -1 0 0 101   0  0.000000e+00  0.000000e+00  3.273208e+03  3.273208e+03 0.0 0.0 9.0
21 -1 0 0 103 101  0.000000e+00  0.000000e+00 -1.902350e+03  1.902350e+03 0.0 0.0 9.0
 2  1 1 2 103   0  2.859828e+02 -5.715352e+02 -1.816039e+03  1.925211e+03 0.0022 0.0 9.0
22  1 1 2   0   0 -2.859828e+02  5.715352e+02  3.186897e+03  3.250347e+03 0.0 0.0 9.0
#pdf 2 21 5.035704e-01 2.926692e-01 5000.0 6.849020e-02 2.582546e-01
</event>
<event>
4 7 1.0 5000.0 7.905138e-03 7.739137e-02
 2 -1 0 0 101   0  0.000000e+00  0.000000e+00  2.646371e+03  2.646371e+03 0.0 0.0 9.0
21 -1 0 0 103 101  0.000000e+00  0.000000e+00 -2.346248e+03  2.346248e+03 0.0 0.0 9.0
22  1 1 2   0   0 -1.418532e+03  1.799904e+03  1.130177e+03  2.555227e+03 0.0 0.0 9.0
 2  1 1 2 103   0  1.418532e+03 -1.799904e+03 -8.300548e+02  2.437391e+03 0.0022 0.0 9.0
#pdf 2 21 4.071339e-01 3.609613e-01 5000.0 1.362816e-01 1.801554e-01
</event>
<event>
4 7 1.0 5000.0 7.905138e-03 7.739137e-02
 2 -1 0 0 101   0  0.000000e+00  0.000000e+00  2.292489e+03  2.292489e+03 0.0 0.0 9.0
21 -1 0 0 103 101  0.000000e+00  0.000000e+00 -2.801631e+03  2.801631e+03 0.0 0.0 9.0
 2  1 1 2 103   0  8.346440e+02  1.328092e+03 -2.255128e+03  2.747010e+03 0.0022 0.0 9.0
22  1 1 2   0   0 -8.346440e+02 -1.328092e+03  1.745986e+03  2.347110e+03 0.0 0.0 9.0
#pdf 2 21 3.526906e-01 4.310202e-01 5000.0 1.888032e-01 1.165321e-01
</event>
<event>
4 7 1.0 5000.0 7.905138e-03 7.739137e-02
 2 -1 0 0 101   0  0.000000e+00  0.000000e+00  1.308199e+03  1.308199e+03 0.0 0.0 9.0
21 -1 0 0 103 101  0.000000e+00  0.000000e+00 -3.770767e+03  3.770767e+03 0.0 0.0 9.0
 2  1 1 2 103   0  7.861476e+02 -3.505785e+02 -3.572294e+03  3.674536e+03 0.0022 0.0 9.0
22  1 1 2   0   0 -7.861476e+02  3.505785e+02  1.109726e+03  1.404430e+03 0.0 0.0 9.0
#pdf 2 21 2.012614e-01 5.801180e-01 5000.0 3.802882e-01 3.509592e-02
</event>
<event>
4 7 1.0 5000.0 7.905138e-03 7.739137e-02
 2 -1 0 0 101   0  0.000000e+00  0.000000e+00  1.174241e+03  1.174241e+03 0.0 0.0 9.0
21 -1 0 0 103 101  0.000000e+00  0.000000e+00 -4.557795e+03  4.557795e+03 0.0 0.0 9.0
 2  1 1 2 103   0  1.763483e+03  5.658272e+02  2.569857e+01  1.852213e+03 0.0022 0.0 9.0
22  1 1 2   0   0 -1.763483e+03 -5.658272e+02 -3.409252e+03  3.879823e+03 0.0 0.0 9.0
#pdf 2 21 1.806525e-01 7.011992e-01 5000.0 4.085526e-01 8.805234e-03
</event>
<event>
4 7 1.0 5000.0 7.905138e-03 7.739137e-02
 2 -1 0 0 101   0  0.000000e+00  0.000000e+00  1.946411e+03  1.946411e+03 0.0 0.0 9.0
21 -1 0 0 103 101  0.000000e+00  0.000000e+00 -3.032733e+03  3.032733e+03 0.0 0.0 9.0
 2  1 1 2 103   0  2.393551e+03 -3.488573e+02 -7.771676e+02  2.540626e+03 0.0022 0.0 9.0
22  1 1 2   0   0 -2.393551e+03  3.488573e+02 -3.091545e+02  2.438517e+03 0.0 0.0 9.0
#pdf 2 21 2.994478e-01 4.665742e-01 5000.0 2.498767e-01 9.080750e-02
</event>
<event>
4 7 1.0 5000.0 7.905138e-03 7.739137e-02
21 -1 0 0 103 101  0.000000e+00  0.000000e+00  1.924520e+03  1.924520e+03 0.0 0.0 9.0
 2 -1 0 0 101   0  0.000000e+00  0.000000e+00 -2.877550e+03  2.877550e+03 0.0 0.0 9.0
 2  1 1 2 103   0 -8.302764e+02  2.199147e+03 -3.633661e+02  2.378579e+03 0.0022 0.0 9.0
22  1 1 2   0   0  8.302764e+02 -2.199147e+03 -5.896631e+02  2.423491e+03 0.0 0.0 9.0
#pdf 21 2 2.960801e-01 4.426999e-01 5000.0 3.782597e-02 6.071722e-03
</event>
<event>
4 7 1.0 5000.0 7.905138e-03 7.739137e-02
 2 -1 0 0 101   0  0.000000e+00  0.000000e+00  2.104729e+03  2.104729e+03 0.0 0.0 9.0
21 -1 0 0 103 101  0.000000e+00  0.000000e+00 -2.814099e+03  2.814099e+03 0.0 0.0 9.0
22  1 1 2   0   0 -1.995788e+03 -2.562053e+02  1.028756e+03  2.259900e+03 0.0 0.0 9.0
 2  1 1 2 103   0  1.995788e+03  2.562053e+02 -1.738126e+03  2.658927e+03 0.0022 0.0 9.0
#pdf 2 21 3.238044e-01 4.329383e-01 5000.0 2.208282e-01 1.150370e-01
</event>
<event>
4 7 1.0 5000.0 7.905138e-03 7.739137e-02
 2 -1 0 0 101   0  0.000000e+00  0.000000e+00  3.549368e+03  3.549368e+03 0.0 0.0 9.0
21 -1 0 0 103 101  0.000000e+00  0.000000e+00 -1.836181e+03  1.836181e+03 0.0 0.0 9.0
 2  1 1 2 103   0  7.259455e+02  9.750741e+02  3.224481e+03  3.446019e+03 0.0022 0.0 9.0
22  1 1 2   0   0 -7.259455e+02 -9.750741e+02 -1.511295e+03  1.939530e+03 0.0 0.0 9.0
#pdf 2 21 5.460566e-01 2.824895e-01 5000.0 4.799915e-02 2.711003e-01
</event>
<event>
4 7 1.0 5000.0 7.905138e-03 7.739137e-02
21 -1 0 0 103 101  0.000000e+00  0.000000e+00  3.132475e+03  3.132475e+03 0.0 0.0 9.0
 2 -1 0 0 101   0  0.000000e+00  0.000000e+00 -1.932758e+03  1.932758e+03 0.0 0.0 9.0
 2  1 1 2 103   0  1.352598e+03  1.416391e+03 -9.332735e+02  2.169489e+03 0.0022 0.0 9.0
22  1 1 2   0   0 -1.352598e+03 -1.416391e+03  2.132991e+03  2.895744e+03 0.0 0.0 9.0
#pdf 21 2 4.819192e-01 2.973474e-01 5000.0 3.607167e-03 3.723520e-02
</event>
<event>
4 7 1.0 5000.0 7.905138e-03 7.739137e-02
21 -1 0 0 103 101  0.000000e+00  0.000000e+00  2.308909e+03  2.308909e+03 0.0 0.0 9.0
 2 -1 0 0 101   0  0.000000e+00  0.000000e+00 -2.670745e+03  2.670745e+03 0.0 0.0 9.0
 2  1 1 2 103   0 -6.285248e+02  1.931794e+03  1.251025e+03  2.385778e+03 0.0022 0.0 9.0
22  1 1 2   0   0  6.285248e+02 -1.931794e+03 -1.612861e+03  2.593876e+03 0.0 0.0 9.0
#pdf 21 2 3.552167e-01 4.108839e-01 5000.0 1.829493e-02 9.130456e-03
</event>
<event>
4 7 1.0 5000.0 7.905138e-03 7.739137e-02
21 -1 0 0 103 101  0.000000e+00  0.000000e+00  2.065653e+03  2.065653e+03 0.0 0.0 9.0
 2 -1 0 0 101   0  0.000000e+00  0.000000e+00 -2.800289e+03  2.800289e+03 0.0 0.0 9.0
 2  1 1 2 103   0  3.756143e+02  1.676296e+03  1.335462e+03  2.175894e+03 0.0022 0.0 9.0
22  1 1 2   0   0 -3.756143e+02 -1.676296e+03 -2.070098e+03  2.690048e+03 0.0 0.0 9.0
#pdf 21 2 3.177928e-01 4.308137e-01 5000.0 2.896643e-02 7.076973e-03
</event>
<event>
4 7 1.0 5000.0 7.905138e-03 7.739137e-02
21 -1 0 0 103 101  0.000000e+00  0.000000e+00  2.815917e+03  2.815917e+03 0.0 0.0 9.0
 2 -1 0 0 101   0  0.000000e+00  0.000000e+00 -2.239525e+03  2.239525e+03 0.0 0.0 9.0
22  1 1 2   0   0  1.135138e+03 -9.533144e+02  2.328560e+03  2.760351e+03 0.0 0.0 9.0
 2  1 1 2 103   0 -1.135138e+03  9.533144e+02 -1.752168e+03  2.295090e+03 0.0022 0.0 9.0
#pdf 21 2 4.332180e-01 3.445423e-01 5000.0 6.863010e-03 2.087080e-02
</event>
<event>
4 7 1.0 5000.0 7.905138e-03 7.739137e-02
21 -1 0 0 103 101  0.000000e+00  0.000000e+00  3.060289e+03  3.060289e+03 0.0 0.0 9.0
 2 -1 0 0 101   0  0.000000e+00  0.000000e+00 -2.034817e+03  2.034817e+03 0.0 0.0 9.0
22  1 1 2   0   0 -3.208591e+02 -1.996283e+03 -9.803595e+02  2.247043e+03 0.0 0.0 9.0
 2  1 1 2 103   0  3.208591e+02  1.996283e+03  2.005832e+03  2.848062e+03 0.0022 0.0 9.0
#pdf 21 2 4.708137e-01 3.130487e-01 5000.0 4.189082e-03 3.071463e-02
</event>
<event>
4 7 1.0 5000.0 7.905138e-03 7.739137e-02
 2 -1 0 0 101   0  0.000000e+00  0.000000e+00  2.722551e+03  2.722551e+03 0.0 0.0 9.0
21 -1 0 0 103 101  0.000000e+00  0.000000e+00 -2.281322e+03  2.281322e+03 0.0 0.0 9.0
22  1 1 2   0   0  5.579575e+02  2.336625e+02  2.647733e+03  2.715953e+03 0.0 0.0 9.0
 2  1 1 2 103   0 -5.579575e+02 -2.336625e+02 -2.206504e+03  2.287919e+03 0.0022 0.0 9.0
#pdf 2 21 4.188540e-01 3.509726e-01 5000.0 1.263366e-01 1.906297e-01
</event>
<event>
4 7 1.0 5000.0 7.905138e-03 7.739137e-02
 2 -1 0 0 101   0  0.000000e+00  0.000000e+00  1.613320e+03  1.613320e+03 0.0 0.0 9.0
21 -1 0 0 103 101  0.000000e+00  0.000000e+00 -3.700951e+03  3.700951e+03 0.0 0.0 9.0
 2  1 1 2 103   0  1.634856e+03 -4.843125e+02  8.594793e+02  1.909455e+03 0.0022 0.0 9.0
22  1 1 2   0   0 -1.634856e+03  4.843125e+02 -2.947110e+03  3.404816e+03 0.0 0.0 9.0
#pdf 2 21 2.482031e-01 5.693771e-01 5000.0 3.160228e-01 3.885200e-02
</event>
<event>
4 7 1.0 5000.0 7.905138e-03 7.739137e-02
21 -1 0 0 103 101  0.000000e+00  0.000000e+00  2.930209e+03  2.930209e+03 0.0 0.0 9.0
 2 -1 0 0 101   0  0.000000e+00  0.000000e+00 -2.133620e+03  2.133620e+03 0.0 0.0 9.0
 2  1 1 2 103   0 -1.419736e+03  1.153935e+03 -1.327521e+03  2.260427e+03 0.0022 0.0 9.0
22  1 1 2   0   0  1.419736e+03 -1.153935e+03  2.124110e+03  2.803402e+03 0.0 0.0 9.0
#pdf 21 2 4.508014e-01 3.282492e-01 5000.0 5.460504e-03 2.548657e-02
</event>
<event>
4 7 1.0 5000.0 7.905138e-03 7.739137e-02
 2 -1 0 0 101   0  0.000000e+00  0.000000e+00  2.335855e+03  2.335855e+03 0.0 0.0 9.0
21 -1 0 0 103 101  0.000000e+00  0.000000e+00 -2.684031e+03  2.684031e+03 0.0 0.0 9.0
22  1 1 2   0   0 -6.587787e+02  4.885493e+02 -2.545562e+03  2.674427e+03 0.0 0.0 9.0
 2  1 1 2 103   0  6.587787e+02 -4.885493e+02  2.197386e+03  2.345459e+03 0.0022 0.0 9.0
#pdf 2 21 3.593623e-01 4.129278e-01 5000.0 1.818092e-01 1.313066e-01
</event>
<event>
4 7 1.0 5000.0 7.905138e-03 7.739137e-02
 2 -1 0 0 101   0  0.000000e+00  0.000000e+00  2.452230e+03  2.452230e+03 0.0 0.0 9.0
21 -1 0 0 103 101  0.000000e+00  0.000000e+00 -2.339805e+03  2.339805e+03 0.0 0.0 9.0
22  1 1 2   0   0  3.907485e+02  1.850309e+03  1.526791e+03  2.430518e+03 0.0 0.0 9.0
 2  1 1 2 103   0 -3.907485e+02 -1.850309e+03 -1.414366e+03  2.361516e+03 0.0022 0.0 9.0
#pdf 2 21 3.772661e-01 3.599700e-01 5000.0 1.638096e-01 1.811797e-01
</event>
<event>
4 7 1.0 5000.0 7.905138e-03 7.739137e-02
21 -1 0 0 103 101  0.000000e+00  0.000000e+00  1.451901e+03  1.451901e+03 0.0 0.0 9.0
 2 -1 0 0 101   0  0.000000e+00  0.000000e+00 -4.185282e+03  4.185282e+03 0.0 0.0 9.0
22  1 1 2   0   0  1.564943e+03 -8.161327e+02  6.009992e+02  1.864489e+03 0.0 0.0 9.0
 2  1 1 2 103   0 -1.564943e+03  8.161327e+02 -3.334380e+03  3.772693e+03 0.0022 0.0 9.0
#pdf 21 2 2.233693e-01 6.438895e-01 5000.0 9.316839e-02 3.084199e-04
</event>
<event>
4 7 1.0 5000.0 7.905138e-03 7.739137e-02
 2 -1 0 0 101   0  0.000000e+00  0.000000e+00  2.962189e+03  2.962189e+03 0.0 0.0 9.0
21 -1 0 0 103 101  0.000000e+00  0.000000e+00 -1.980301e+03  1.980301e+03 0.0 0.0 9.0
22  1 1 2   0   0 -4.913217e+02 -4.383293e+02 -1.887230e+03  1.998791e+03 0.0 0.0 9.0
 2  1 1 2 103   0  4.913217e+02  4.383293e+02  2.869118e+03  2.943700e+03 0.0022 0.0 9.0
#pdf 2 21 4.557215e-01 3.046618e-01 5000.0 9.820332e-02 2.435024e-01
</event>
<event>
4 7 1.0 5000.0 7.905138e-03 7.739137e-02
 2 -1 0 0 101   0  0.000000e+00  0.000000e+00  3.789584e+03  3.789584e+03 0.0 0.0 9.0
21 -1 0 0 103 101  0.000000e+00  0.000000e+00 -1.669632e+03  1.669632e+03 0.0 0.0 9.0
22  1 1 2   0   0  1.282039e+03  9.480899e+02 -1.051133e+03  1.909811e+03 0.0 0.0 9.0
 2  1 1 2 103   0 -1.282039e+03 -9.480899e+02  3.171085e+03  3.549405e+03 0.0022 0.0 9.0
#pdf 2 21 5.830129e-01 2.568665e-01 5000.0 3.413176e-02 3.044431e-01
</event>
<event>
4 7 1.0 5000.0 7.905138e-03 7.739137e-02
 2 -1 0 0 101   0  0.000000e+00  0.000000e+00  1.735501e+03  1.735501e+03 0.0 0.0 9.0
21 -1 0 0 103 101  0.000000e+00  0.000000e+00 -3.762582e+03  3.762582e+03 0.0 0.0 9.0
 2  1 1 2 103   0  1.574579e+03 -1.384602e+03  5.578227e+02  2.169697e+03 0.0022 0.0 9.0
22  1 1 2   0   0 -1.574579e+03  1.384602e+03 -2.584904e+03  3.328386e+03 0.0 0.0 9.0
#pdf 2 21 2.670001e-01 5.788588e-01 5000.0 2.911061e-01 3.552152e-02
</event>
<event>
4 7 1.0 5000.0 7.905138e-03 7.739137e-02
 2 -1 0 0 101   0  0.000000e+00  0.000000e+00  2.644447e+03  2.644447e+03 0.0 0.0 9.0
21 -1 0 0 103 101  0.000000e+00  0.000000e+00 -2.334470e+03  2.334470e+03 0.0 0.0 9.0
22  1 1 2   0   0  1.565208e+03 -8.123656e+02 -1.598719e+03  2.380276e+03 0.0 0.0 9.0
 2  1 1 2 103   0 -1.565208e+03  8.123656e+02  1.908696e+03  2.598641e+03 0.0022 0.0 9.0
#pdf 2 21 4.068380e-01 3.591492e-01 5000.0 1.365390e-01 1.820302e-01
</event>
<event>
4 7 1.0 5000.0 7.905138e-03 7.739137e-02
 2 -1 0 0 101   0  0.000000e+00  0.000000e+00  1.855706e+03  1.855706e+03 0.0 0.0 9.0
21 -1 0 0 103 101  0.000000e+00  0.000000e+00 -3.539338e+03  3.539338e+03 0.0 0.0 9.0
 2  1 1 2 103   0 -7.772208e+02  1.084677e+03  1.461206e+03  1.978818e+03 0.0022 0.0 9.0
22  1 1 2   0   0  7.772208e+02 -1.084677e+03 -3.144838e+03  3.416227e+03 0.0 0.0 9.0
#pdf 2 21 2.854933e-01 5.445136e-01 5000.0 2.672862e-01 4.865430e-02
</event>
<event>
4 7 1.0 5000.0 7.905138e-03 7.739137e-02
21 -1 0 0 103 101  0.000000e+00  0.000000e+00  4.051102e+03  4.051102e+03 0.0 0.0 9.0
 2 -1 0 0 101   0  0.000000e+00  0.000000e+00 -1.496405e+03  1.496405e+03 0.0 0.0 9.0
22  1 1 2   0   0 -1.586254e+03  1.709864e+01  3.398645e+03  3.750637e+03 0.0 0.0 9.0
 2  1 1 2 103   0  1.586254e+03 -1.709864e+01 -8.439476e+02  1.796870e+03 0.0022 0.0 9.0
#pdf 21 2 6.232465e-01 2.302161e-01 5000.0 4.390330e-04 8.540855e-02
</event>
<event>
4 7 1.0 5000.0 7.905138e-03 7.739137e-02
21 -1 0 0 103 101  0.000000e+00  0.000000e+00  2.161015e+03  2.161015e+03 0.0 0.0 9.0
 2 -1 0 0 101   0  0.000000e+00  0.000000e+00 -2.917483e+03  2.917483e+03 0.0 0.0 9.0
22  1 1 2   0   0  1.101727e+03 -1.363410e+03 -2.196303e+03  2.810060e+03 0.0 0.0 9.0
 2  1 1 2 103   0 -1.101727e+03  1.363410e+03  1.439835e+03  2.268439e+03 0.0022 0.0 9.0
#pdf 21 2 3.324639e-01 4.488436e-01 5000.0 2.420418e-02 5.599601e-03
</event>
<event>
4 7 1.0 5000.0 7.905138e-03 7.739137e-02
21 -1 0 0 103 101  0.000000e+00  0.000000e+00  2.277940e+03  2.277940e+03 0.0 0.0 9.0
 2 -1 0 0 101   0  0.000000e+00  0.000000e+00 -2.772158e+03  2.772158e+03 0.0 0.0 9.0
 2  1 1 2 103   0 -3.975955e+02  7.801560e+02  2.119689e+03  2.293427e+03 0.0022 0.0 9.0
22  1 1 2   0   0  3.975955e+02 -7.801560e+02 -2.613907e+03  2.756671e+03 0.0 0.0 9.0
#pdf 21 2 3.504523e-01 4.264859e-01 5000.0 1.941118e-02 7.481654e-03
</event>
<event>
4 7 1.0 5000.0 7.905138e-03 7.739137e-02
 2 -1 0 0 101   0  0.000000e+00  0.000000e+00  3.247759e+03  3.247759e+03 0.0 0.0 9.0
21 -1 0 0 103 101  0.000000e+00  0.000000e+00 -1.880568e+03  1.880568e+03 0.0 0.0 9.0
 2  1 1 2 103   0 -9.696017e+02 -3.212272e+02 -1.651313e+03  1.941687e+03 0.0022 0.0 9.0
22  1 1 2   0   0  9.696017e+02  3.212272e+02  3.018504e+03  3.186641e+03 0.0 0.0 9.0
#pdf 2 21 4.996553e-01 2.893182e-01 5000.0 7.064619e-02 2.624552e-01
</event>
<event>
4 7 1.0 5000.0 7.905138e-03 7.739137e-02
21 -1 0 0 103 101  0.000000e+00  0.000000e+00  2.692877e+03  2.692877e+03 0.0 0.0 9.0
 2 -1 0 0 101   0  0.000000e+00  0.000000e+00 -2.358676e+03  2.358676e+03 0.0 0.0 9.0
 2  1 1 2 103   0  1.836767e+03  7.287025e+02 -1.400593e+03  2.422061e+03 0.0022 0.0 9.0
22  1 1 2   0   0 -1.836767e+03 -7.287025e+02  1.734794e+03  2.629492e+03 0.0 0.0 9.0
#pdf 21 2 4.142888e-01 3.628733e-01 5000.0 8.743416e-03 1.665188e-02
</event>
<event>
4 7 1.0 5000.0 7.905138e-03 7.739137e-02
21 -1 0 0 103 101  0.000000e+00  0.000000e+00  1.660465e+03  1.660465e+03 0.0 0.0 9.0
 2 -1 0 0 101   0  0.000000e+00  0.000000e+00 -3.700802e+03  3.700802e+03 0.0 0.0 9.0
22  1 1 2   0   0  4.763301e+02 -5.126938e+02 -3.591764e+03  3.659305e+03 0.0 0.0 9.0
 2  1 1 2 103   0 -4.763301e+02  5.126938e+02  1.551427e+03  1.701961e+03 0.0022 0.0 9.0
#pdf 21 2 2.554561e-01 5.693541e-01 5000.0 6.236069e-02 1.035107e-03
</event>
<event>
4 7 1.0 5000.0 7.905138e-03 7.739137e-02
 2 -1 0 0 101   0  0.000000e+00  0.000000e+00  1.873577e+03  1.873577e+03 0.0 0.0 9.0
21 -1 0 0 103 101  0.000000e+00  0.000000e+00 -2.696973e+03  2.696973e+03 0.0 0.0 9.0
22  1 1 2   0   0  7.938275e+02 -2.029651e+03 -9.716226e+02  2.386147e+03 0.0 0.0 9.0
 2  1 1 2 103   0 -7.938275e+02  2.029651e+03  1.482273e+02  2.184403e+03 0.0022 0.0 9.0
#pdf 2 21 2.882427e-01 4.149189e-01 5000.0 2.638101e-01 1.296232e-01
</event>
<event>
4 7 1.0 5000.0 7.905138e-03 7.739137e-02
 2 -1 0 0 101   0  0.000000e+00  0.000000e+00  1.841945e+03  1.841945e+03 0.0 0.0 9.0
21 -1 0 0 103 101  0.000000e+00  0.000000e+00 -3.475999e+03  3.475999e+03 0.0 0.0 9.0
22  1 1 2   0   0 -9.832715e+02  1.676182e+03  8.859108e+02  2.135708e+03 0.0 0.0 9.0
 2  1 1 2 103   0  9.832715e+02 -1.676182e+03 -2.519965e+03  3.182237e+03 0.0022 0.0 9.0
#pdf 2 21 2.833762e-01 5.347691e-01 5000.0 2.699729e-01 5.294259e-02
</event>
<event>
4 7 1.0 5000.0 7.905138e-03 7.739137e-02
 2 -1 0 0 101   0  0.000000e+00  0.000000e+00  2.164318e+03  2.164318e+03 0.0 0.0 9.0
21 -1 0 0 103 101  0.000000e+00  0.000000e+00 -2.675908e+03  2.675908e+03 0.0 0.0 9.0
22  1 1 2   0   0  1.021006e+03 -1.833822e+03 -1.439779e+03  2.545255e+03 0.0 0.0 9.0
 2  1 1 2 103   0 -1.021006e+03  1.833822e+03  9.281894e+02  2.294971e+03 0.0022 0.0 9.0
#pdf 2 21 3.329720e-01 4.116781e-01 5000.0 2.103619e-01 1.323700e-01
</event>
<event>
4 7 1.0 5000.0 7.905138e-03 7.739137e-02
 2 -1 0 0 101   0  0.000000e+00  0.000000e+00  3.138720e+03  3.138720e+03 0.0 0.0 9.0
21 -1 0 0 103 101  0.000000e+00  0.000000e+00 -2.016820e+03  2.016820e+03 0.0 0.0 9.0
 2  1 1 2 103   0 -7.655951e+02 -7.489720e+02  2.893498e+03  3.085357e+03 0.0022 0.0 9.0
22  1 1 2   0   0  7.655951e+02  7.489720e+02 -1.771598e+03  2.070182e+03 0.0 0.0 9.0
#pdf 2 21 4.828800e-01 3.102799e-01 5000.0 8.042826e-02 2.367291e-01
</event>
<event>
4 7 1.0 5000.0 7.905138e-03 7.739137e-02
 2 -1 0 0 101   0  0.000000e+00  0.000000e+00  3.670468e+03  3.670468e+03 0.0 0.0 9.0
21 -1 0 0 103 101  0.000000e+00  0.000000e+00 -1.714398e+03  1.714398e+03 0.0 0.0 9.0
 2  1 1 2 103   0 -1.320877e+03  1.675518e+03  2.394068e+03  3.206812e+03 0.0022 0.0 9.0
22  1 1 2   0   0  1.320877e+03 -1.675518e+03 -4.379977e+02  2.178054e+03 0.0 0.0 9.0
#pdf 2 21 5.646874e-01 2.637535e-01 5000.0 4.058822e-02 2.953640e-01
</event>
<event>
4 7 1.0 5000.0 7.905138e-03 7.739137e-02
 2 -1 0 0 101   0  0.000000e+00  0.000000e+00  2.035250e+03  2.035250e+03 0.0 0.0 9.0
21 -1 0 0 103 101  0.000000e+00  0.000000e+00 -3.108834e+03  3.108834e+03 0.0 0.0 9.0
 2  1 1 2 103   0 -2.505654e+03 -9.317532e+01 -7.419866e+02  2.614867e+03 0.0022 0.0 9.0
22  1 1 2   0   0  2.505654e+03  9.317532e+01 -3.315974e+02  2.529217e+03 0.0 0.0 9.0
#pdf 2 21 3.131154e-01 4.782822e-01 5000.0 2.333499e-01 8.326599e-02
</event>
<event>
4 7 1.0 5000.0 7.905138e-03 7.739137e-02
21 -1 0 0 103 101  0.000000e+00  0.000000e+00  1.966541e+03  1.966541e+03 0.0 0.0 9.0
 2 -1 0 0 101   0  0.000000e+00  0.000000e+00 -3.278253e+03  3.278253e+03 0.0 0.0 9.0
 2  1 1 2 103   0  5.344652e+02  7.951802e+01 -3.218181e+03  3.263229e+03 0.0022 0.0 9.0
22  1 1 2   0   0 -5.344652e+02 -7.951802e+01  1.906469e+03  1.981565e+03 0.0 0.0 9.0
#pdf 21 2 3.025448e-01 5.043466e-01 5000.0 3.493065e-02 2.653648e-03
</event>
<event>
4 7 1.0 5000.0 7.905138e-03 7.739137e-02
21 -1 0 0 103 101  0.000000e+00  0.000000e+00  3.084611e+03  3.084611e+03 0.0 0.0 9.0
 2 -1 0 0 101   0  0.000000e+00  0.000000e+00 -2.046767e+03  2.046767e+03 0.0 0.0 9.0
 2  1 1 2 103   0  2.362540e+03  6.986023e+02  1.023143e+03  2.667670e+03 0.0022 0.0 9.0
22  1 1 2   0   0 -2.362540e+03 -6.986023e+02  1.470189e+01  2.463708e+03 0.0 0.0 9.0
#pdf 21 2 4.745556e-01 3.148872e-01 5000.0 3.984442e-03 3.002327e-02
</event>
<event>
4 7 1.0 5000.0 7.905138e-03 7.739137e-02
21 -1 0 0 103 101  0.000000e+00  0.000000e+00  2.693029e+03  2.693029e+03 0.0 0.0 9.0
 2 -1 0 0 101   0  0.000000e+00  0.000000e+00 -2.324101e+03  2.324101e+03 0.0 0.0 9.0
 2  1 1 2 103   0  2.268644e+03  1.010561e+03  4.867648e+02  2.530794e+03 0.0022 0.0 9.0
22  1 1 2   0   0 -2.268644e+03 -1.010561e+03 -1.178367e+02  2.486336e+03 0.0 0.0 9.0
#pdf 21 2 4.143122e-01 3.575540e-01 5000.0 8.740816e-03 1.777376e-02
</event>
<event>
4 7 1.0 5000.0 7.905138e-03 7.739137e-02
 2 -1 0 0 101   0  0.000000e+00  0.000000e+00  1.856937e+03  1.856937e+03 0.0 0.0 9.0
21 -1 0 0 103 101  0.000000e+00  0.000000e+00 -3.137541e+03  3.137541e+03 0.0 0.0 9.0
22  1 1 2   0   0  1.437627e+03  3.900428e+02  1.324680e+03  1.993410e+03 0.0 0.0 9.0
 2  1 1 2 103   0 -1.437627e+03 -3.900428e+02 -2.605285e+03  3.001069e+03 0.0022 0.0 9.0
#pdf 2 21 2.856826e-01 4.826987e-01 5000.0 2.670463e-01 8.053881e-02
</event>
<event>
4 7 1.0 5000.0 7.905138e-03 7.739137e-02
21 -1 0 0 103 101  0.000000e+00  0.000000e+00  4.282412e+03  4.282412e+03 0.0 0.0 9.0
 2 -1 0 0 101   0  0.000000e+00  0.000000e+00 -1.477680e+03  1.477680e+03 0.0 0.0 9.0
22  1 1 2   0   0  6.290529e+02 -2.033892e+03  2.936527e+03  3.627067e+03 0.0 0.0 9.0
 2  1 1 2 103   0 -6.290529e+02  2.033892e+03 -1.317948e+02  2.133024e+03 0.0022 0.0 9.0
#pdf 21 2 6.588326e-01 2.273353e-01 5000.0 2.368809e-04 8.856964e-02
</event>
<event>
4 7 1.0 5000.0 7.905138e-03 7.739137e-02
21 -1 0 0 103 101  0.000000e+00  0.000000e+00  2.038325e+03  2.038325e+03 0.0 0.0 9.0
 2 -1 0 0 101   0  0.000000e+00  0.000000e+00 -2.613022e+03  2.613022e+03 0.0 0.0 9.0
22  1 1 2   0   0 -4.032849e+02 -1.516692e+03 -1.992511e+03  2.536355e+03 0.0 0.0 9.0
 2  1 1 2 103   0  4.032849e+02  1.516692e+03  1.417814e+03  2.114992e+03 0.0022 0.0 9.0
#pdf 21 2 3.135884e-01 4.020034e-01 5000.0 3.050995e-02 1.021880e-02
</event>
<event>
4 7 1.0 5000.0 7.905138e-03 7.739137e-02
 2 -1 0 0 101   0  0.000000e+00  0.000000e+00  2.982609e+03  2.982609e+03 0.0 0.0 9.0
21 -1 0 0 103 101  0.000000e+00  0.000000e+00 -2.081161e+03  2.081161e+03 0.0 0.0 9.0
 2  1 1 2 103   0  6.437973e+02  1.457012e+03  2.397527e+03  2.878453e+03 0.0022 0.0 9.0
22  1 1 2   0   0 -6.437973e+02 -1.457012e+03 -1.496079e+03  2.185317e+03 0.0 0.0 9.0
#pdf 2 21 4.588629e-01 3.201786e-01 5000.0 9.601649e-02 2.250398e-01
</event>
<event>
4 7 1.0 5000.0 7.905138e-03 7.739137e-02
 2 -1 0 0 101   0  0.000000e+00  0.000000e+00  1.941540e+03  1.941540e+03 0.0 0.0 9.0
21 -1 0 0 103 101  0.000000e+00  0.000000e+00 -3.206263e+03  3.206263e+03 0.0 0.0 9.0
22  1 1 2   0   0  7.999341e+02  5.913894e+02 -2.992819e+03  3.153824e+03 0.0 0.0 9.0
 2  1 1 2 103   0 -7.999341e+02 -5.913894e+02  1.728096e+03  1.993979e+03 0.0022 0.0 9.0
#pdf 2 21 2.986984e-01 4.932712e-01 5000.0 2.507938e-01 7.426418e-02
</event>
<event>
4 7 1.0 5000.0 7.905138e-03 7.739137e-02
21 -1 0 0 103 101  0.000000e+00  0.000000e+00  3.595973e+03  3.595973e+03 0.0 0.0 9.0
 2 -1 0 0 101   0  0.000000e+00  0.000000e+00 -1.838561e+03  1.838561e+03 0.0 0.0 9.0
22  1 1 2   0   0  1.084630e+03  1.674060e+03 -8.359245e+02  2.162792e+03 0.0 0.0 9.0
 2  1 1 2 103   0 -1.084630e+03 -1.674060e+03  2.593337e+03  3.271742e+03 0.0022 0.0 9.0
#pdf 21 2 5.532266e-01 2.828555e-01 5000.0 1.317509e-03 4.443358e-02
</event>
<event>
4 7 1.0 5000.0 7.905138e-03 7.739137e-02
 2 -1 0 0 101   0  0.000000e+00  0.000000e+00  1.997321e+03  1.997321e+03 0.0 0.0 9.0
21 -1 0 0 103 101  0.000000e+00  0.000000e+00 -2.819551e+03  2.819551e+03 0.0 0.0 9.0
22  1 1 2   0   0  7.782193e+02  2.234641e+03 -5.935184e+02  2.439572e+03 0.0 0.0 9.0
 2  1 1 2 103   0 -7.782193e+02 -2.234641e+03 -2.287121e+02  2.377300e+03 0.0022 0.0 9.0
#pdf 2 21 3.072801e-01 4.337771e-01 5000.0 2.403326e-01 1.143872e-01
</event>
<event>
4 7 1.0 5000.0 7.905138e-03 7.739137e-02
 2 -1 0 0 101   0  0.000000e+00  0.000000e+00  3.187752e+03  3.187752e+03 0.0 0.0 9.0
21 -1 0 0 103 101  0.000000e+00  0.000000e+00 -1.961157e+03  1.961157e+03 0.0 0.0 9.0
22  1 1 2   0   0 -2.453417e+03  7.333558e+01  1.226749e+02  2.457577e+03 0.0 0.0 9.0
 2  1 1 2 103   0  2.453417e+03 -7.333558e+01  1.103920e+03  2.691333e+03 0.0022 0.0 9.0
#pdf 2 21 4.904235e-01 3.017165e-01 5000.0 7.591954e-02 2.470962e-01
</event>
<event>
4 7 1.0 5000.0 7.905138e-03 7.739137e-02
21 -1 0 0 103 101  0.000000e+00  0.000000e+00  2.342979e+03  2.342979e+03 0.0 0.0 9.0
 2 -1 0 0 101   0  0.000000e+00  0.000000e+00 -2.632529e+03  2.632529e+03 0.0 0.0 9.0
 2  1 1 2 103   0 -3.697460e+02 -1.920918e+03  1.387961e+03  2.398556e+03 0.0022 0.0 9.0
22  1 1 2   0   0  3.697460e+02  1.920918e+03 -1.677511e+03  2.576952e+03 0.0 0.0 9.0
#pdf 21 2 3.604583e-01 4.050045e-01 5000.0 1.715201e-02 9.838908e-03
</event>
<event>
4 7 1.0 5000.0 7.905138e-03 7.739137e-02
21 -1 0 0 103 101  0.000000e+00  0.000000e+00  2.905120e+03  2.905120e+03 0.0 0.0 9.0
 2 -1 0 0 101   0  0.000000e+00  0.000000e+00 -2.175901e+03  2.175901e+03 0.0 0.0 9.0
22  1 1 2   0   0  2.368516e+03  3.001473e+02 -4.318593e+02  2.426203e+03 0.0 0.0 9.0
 2  1 1 2 103   0 -2.368516e+03 -3.001473e+02  1.161079e+03  2.654818e+03 0.0022 0.0 9.0
#pdf 21 2 4.469416e-01 3.347539e-01 5000.0 5.738173e-03 2.353264e-02
</event>
<event>
4 7 1.0 5000.0 7.905138e-03 7.739137e-02
 2 -1 0 0 101   0  0.000000e+00  0.000000e+00  3.076398e+03  3.076398e+03 0.0 0.0 9.0
21 -1 0 0 103 101  0.000000e+00  0.000000e+00 -2.135056e+03  2.135056e+03 0.0 0.0 9.0
 2  1 1 2 103   0  5.483090e+02  2.464861e+03  2.505071e+01  2.525235e+03 0.0022 0.0 9.0
22  1 1 2   0   0 -5.483090e+02 -2.464861e+03  9.162914e+02  2.686219e+03 0.0 0.0 9.0
#pdf 2 21 4.732920e-01 3.284701e-01 5000.0 8.642658e-02 2.154668e-01
</event>
<event>
4 7 1.0 5000.0 7.905138e-03 7.739137e-02
 2 -1 0 0 101   0  0.000000e+00  0.000000e+00  4.398757e+03  4.398757e+03 0.0 0.0 9.0
21 -1 0 0 103 101  0.000000e+00  0.000000e+00 -1.285796e+03  1.285796e+03 0.0 0.0 9.0
22  1 1 2   0   0 -8.502338e+02 -1.202901e+03 -6.749395e+02  1.620312e+03 0.0 0.0 9.0
 2  1 1 2 103   0  8.502338e+02  1.202901e+03  3.787900e+03  4.064241e+03 0.0022 0.0 9.0
#pdf 2 21 6.767319e-01 1.978148e-01 5000.0 1.214325e-02 3.850515e-01
</event>
<event>
4 7 1.0 5000.0 7.905138e-03 7.739137e-02
 2 -1 0 0 101   0  0.000000e+00  0.000000e+00  1.486336e+03  1.486336e+03 0.0 0.0 9.0
21 -1 0 0 103 101  0.000000e+00  0.000000e+00 -4.284966e+03  4.284966e+03 0.0 0.0 9.0
22  1 1 2   0   0 -2.347956e+03  2.082879e+01 -3.416726e+02  2.372778e+03 0.0 0.0 9.0
 2  1 1 2 103   0  2.347956e+03 -2.082879e+01 -2.456958e+03  3.398525e+03 0.0022 0.0 9.0
#pdf 2 21 2.286671e-01 6.592256e-01 5000.0 3.425555e-01 1.506801e-02
</event>
<event>
4 7 1.0 5000.0 7.905138e-03 7.739137e-02
21 -1 0 0 103 101  0.000000e+00  0.000000e+00  3.618179e+03  3.618179e+03 0.0 0.0 9.0
 2 -1 0 0 101   0  0.000000e+00  0.000000e+00 -1.716429e+03  1.716429e+03 0.0 0.0 9.0
22  1 1 2   0   0  1.309391e+03  1.623208e+03  2.411008e+03  3.187831e+03 0.0 0.0 9.0
 2  1 1 2 103   0 -1.309391e+03 -1.623208e+03 -5.092576e+02  2.146777e+03 0.0022 0.0 9.0
#pdf 21 2 5.566430e-01 2.640660e-01 5000.0 1.253971e-03 5.599879e-02
</event>
<event>
4 7 1.0 5000.0 7.905138e-03 7.739137e-02
 2 -1 0 0 101   0  0.000000e+00  0.000000e+00  4.017906e+03  4.017906e+03 0.0 0.0 9.0
21 -1 0 0 103 101  0.000000e+00  0.000000e+00 -1.578005e+03  1.578005e+03 0.0 0.0 9.0
 2  1 1 2 103   0 -9.189145e+02 -2.059238e+03  2.464982e+03  3.340808e+03 0.0022 0.0 9.0
22  1 1 2   0   0  9.189145e+02  2.059238e+03 -2.508054e+01  2.255104e+03 0.0 0.0 9.0
#pdf 2 21 6.181395e-01 2.427701e-01 5000.0 2.392306e-02 3.233317e-01
</event>
<event>
4 7 1.0 5000.0 7.905138e-03 7.739137e-02
21 -1 0 0 103 101  0.000000e+00  0.000000e+00  3.336157e+03  3.336157e+03 0.0 0.0 9.0
 2 -1 0 0 101   0  0.000000e+00  0.000000e+00 -1.879084e+03  1.879084e+03 0.0 0.0 9.0
22  1 1 2   0   0 -1.712491e+03  1.739165e+03  1.309898e+03  2.770046e+03 0.0 0.0 9.0
 2  1 1 2 103   0  1.712491e+03 -1.739165e+03  1.471749e+02  2.445196e+03 0.0022 0.0 9.0
#pdf 21 2 5.132550e-01 2.890899e-01 5000.0 2.344496e-03 4.119045e-02
</event>
<event>
4 7 1.0 5000.0 7.905138e-03 7.739137e-02
 2 -1 0 0 101   0  0.000000e+00  0.000000e+00  1.533732e+03  1.533732e+03 0.0 0.0 9.0
21 -1 0 0 103 101  0.000000e+00  0.000000e+00 -3.702137e+03  3.702137e+03 0.0 0.0 9.0
22  1 1 2   0   0  1.475574e+03 -1.369790e+03 -2.484466e+03  3.197846e+03 0.0 0.0 9.0
 2  1 1 2 103   0 -1.475574e+03  1.369790e+03  3.160623e+02  2.038023e+03 0.0022 0.0 9.0
#pdf 2 21 2.359588e-01 5.695595e-01 5000.0 3.325664e-01 3.878565e-02
</event>
<event>
4 7 1.0 5000.0 7.905138e-03 7.739137e-02
 2 -1 0 0 101   0  0.000000e+00  0.000000e+00  1.853259e+03  1.853259e+03 0.0 0.0 9.0
21 -1 0 0 103 101  0.000000e+00  0.000000e+00 -3.347414e+03  3.347414e+03 0.0 0.0 9.0
 2  1 1 2 103   0 -1.154109e+03  9.241826e+02  1.345527e+03  1.999130e+03 0.0022 0.0 9.0
22  1 1 2   0   0  1.154109e+03 -9.241826e+02 -2.839682e+03  3.201542e+03 0.0 0.0 9.0
#pdf 2 21 2.851167e-01 5.149867e-01 5000.0 2.677635e-01 6.246839e-02
</event>
<event>
4 7 1.0 5000.0 7.905138e-03 7.739137e-02
 2 -1 0 0 101   0  0.000000e+00  0.000000e+00  3.236898e+03  3.236898e+03 0.0 0.0 9.0
21 -1 0 0 103 101  0.000000e+00  0.000000e+00 -1.933615e+03  1.933615e+03 0.0 0.0 9.0
 2  1 1 2 103   0 -8.051154e+02  1.500260e+03  2.545811e+03  3.062702e+03 0.0022 0.0 9.0
22  1 1 2   0   0  8.051154e+02 -1.500260e+03 -1.242528e+03  2.107811e+03 0.0 0.0 9.0
#pdf 2 21 4.979843e-01 2.974793e-01 5000.0 7.158074e-02 2.522910e-01
</event>
<event>
4 7 1.0 5000.0 7.905138e-03 7.739137e-02
 2 -1 0 0 101   0  0.000000e+00  0.000000e+00  2.267011e+03  2.267011e+03 0.0 0.0 9.0
21 -1 0 0 103 101  0.000000e+00  0.000000e+00 -2.120348e+03  2.120348e+03 0.0 0.0 9.0
 2  1 1 2 103   0 -4.637629e+02 -8.324199e+01  2.215755e+03  2.265298e+03 0.0022 0.0 9.0
22  1 1 2   0   0  4.637629e+02  8.324199e+01 -2.069091e+03  2.122061e+03 0.0 0.0 9.0
#pdf 2 21 3.487709e-01 3.262073e-01 5000.0 1.929857e-01 2.180584e-01
</event>
<event>
4 7 1.0 5000.0 7.905138e-03 7.739137e-02
 2 -1 0 0 101   0  0.000000e+00  0.000000e+00  2.568225e+03  2.568225e+03 0.0 0.0 9.0
21 -1 0 0 103 101  0.000000e+00  0.000000e+00 -2.334981e+03  2.334981e+03 0.0 0.0 9.0
22  1 1 2   0   0  1.869166e+03  1.447614e+03 -5.223725e+02  2.421207e+03 0.0 0.0 9.0
 2  1 1 2 103   0 -1.869166e+03 -1.447614e+03  7.556160e+02  2.482000e+03 0.0022 0.0 9.0
#pdf 2 21 3.951115e-01 3.592279e-01 5000.0 1.469938e-01 1.819485e-01
</event>
<event>
4 7 1.0 5000.0 7.905138e-03 7.739137e-02
21 -1 0 0 103 101  0.000000e+00  0.000000e+00  1.411917e+03  1.411917e+03 0.0 0.0 9.0
 2 -1 0 0 101   0  0.000000e+00  0.000000e+00 -3.482343e+03  3.482343e+03 0.0 0.0 9.0
 2  1 1 2 103   0 -1.532818e+03  9.794076e+02  3.642483e+02  1.855114e+03 0.0022 0.0 9.0
22  1 1 2   0   0  1.532818e+03 -9.794076e+02 -2.434674e+03  3.039146e+03 0.0 0.0 9.0
#pdf 21 2 2.172180e-01 5.357450e-01 5000.0 1.008052e-01 1.702263e-03
</event>
<event>
4 7 1.0 5000.0 7.905138e-03 7.739137e-02
21 -1 0 0 103 101  0.000000e+00  0.000000e+00  2.624050e+03  2.624050e+03 0.0 0.0 9.0
 2 -1 0 0 101   0  0.000000e+00  0.000000e+00 -2.348438e+03  2.348438e+03 0.0 0.0 9.0
22  1 1 2   0   0 -1.501017e+03  1.410863e+03 -1.249546e+03  2.409347e+03 0.0 0.0 9.0
 2  1 1 2 103   0  1.501017e+03 -1.410863e+03  1.525158e+03  2.563141e+03 0.0022 0.0 9.0
#pdf 21 2 4.037000e-01 3.612982e-01 5000.0 1.000245e-02 1.697658e-02
</event>
<event>
4 7 1.0 5000.0 7.905138e-03 7.739137e-02
 2 -1 0 0 101   0  0.000000e+00  0.000000e+00  1.342242e+03  1.342242e+03 0.0 0.0 9.0
21 -1 0 0 103 101  0.000000e+00  0.000000e+00 -4.558254e+03  4.558254e+03 0.0 0.0 9.0
 2  1 1 2 103   0  1.130135e+03  2.199434e+03 -1.536793e+03  2.911434e+03 0.0022 0.0 9.0
22  1 1 2   0   0 -1.130135e+03 -2.199434e+03 -1.679219e+03  2.989062e+03 0.0 0.0 9.0
#pdf 2 21 2.064988e-01 7.012698e-01 5000.0 3.730765e-01 8.796722e-03
</event>
<event>
4 7 1.0 5000.0 7.905138e-03 7.739137e-02
21 -1 0 0 103 101  0.000000e+00  0.000000e+00  4.456791e+03  4.456791e+03 0.0 0.0 9.0
 2 -1 0 0 101   0  0.000000e+00  0.000000e+00 -1.367096e+03  1.367096e+03 0.0 0.0 9.0
22  1 1 2   0   0 -2.276128e+03  9.461879e+02  1.391810e+03  2.830754e+03 0.0 0.0 9.0
 2  1 1 2 103   0  2.276128e+03 -9.461879e+02  1.697886e+03  2.993133e+03 0.0022 0.0 9.0
#pdf 21 2 6.856602e-01 2.103224e-01 5000.0 1.435244e-04 1.100672e-01
</event>
<event>
4 7 1.0 5000.0 7.905138e-03 7.739137e-02
21 -1 0 0 103 101  0.000000e+00  0.000000e+00  2.081113e+03  2.081113e+03 0.0 0.0 9.0
 2 -1 0 0 101   0  0.000000e+00  0.000000e+00 -3.804216e+03  3.804216e+03 0.0 0.0 9.0
 2  1 1 2 103   0  7.772098e+02  1.112399e+03 -3.439367e+03  3.697396e+03 0.0022 0.0 9.0
22  1 1 2   0   0 -7.772098e+02 -1.112399e+03  1.716265e+03  2.187933e+03 0.0 0.0 9.0
#pdf 21 2 3.201713e-01 5.852640e-01 5000.0 2.813379e-02 8.100389e-04
</event>
<event>
4 7 1.0 5000.0 7.905138e-03 7.739137e-02
 2 -1 0 0 101   0  0.000000e+00  0.000000e+00  3.133630e+03  3.133630e+03 0.0 0.0 9.0
21 -1 0 0 103 101  0.000000e+00  0.000000e+00 -1.986252e+03  1.986252e+03 0.0 0.0 9.0
 2  1 1 2 103   0 -9.689769e+02  2.295548e+03  4.450256e+02  2.531107e+03 0.0022 0.0 9.0
22  1 1 2   0   0  9.689769e+02 -2.295548e+03  7.023531e+02  2.588775e+03 0.0 0.0 9.0
#pdf 2 21 4.820970e-01 3.055772e-01 5000.0 8.090653e-02 2.423915e-01
</event>
<event>
4 7 1.0 5000.0 7.905138e-03 7.739137e-02
21 -1 0 0 103 101  0.000000e+00  0.000000e+00  3.185682e+03  3.185682e+03 0.0 0.0 9.0
 2 -1 0 0 101   0  0.000000e+00  0.000000e+00 -1.962522e+03  1.962522e+03 0.0 0.0 9.0
22  1 1 2   0   0 -2.078092e+03 -1.390467e+03  6.222313e+02  2.576633e+03 0.0 0.0 9.0
 2  1 1 2 103   0  2.078092e+03  1.390467e+03  6.009289e+02  2.571571e+03 0.0022 0.0 9.0
#pdf 21 2 4.901049e-01 3.019264e-01 5000.0 3.227833e-03 3.518951e-02
</event>
<event>
4 7 1.0 5000.0 7.905138e-03 7.739137e-02
21 -1 0 0 103 101  0.000000e+00  0.000000e+00  1.644417e+03  1.644417e+03 0.0 0.0 9.0
 2 -1 0 0 101   0  0.000000e+00  0.000000e+00 -3.687998e+03  3.687998e+03 0.0 0.0 9.0
22  1 1 2   0   0  2.089506e+03  1.227942e+03 -5.489648e+02  2.485003e+03 0.0 0.0 9.0
 2  1 1 2 103   0 -2.089506e+03 -1.227942e+03 -1.494617e+03  2.847412e+03 0.0022 0.0 9.0
#pdf 21 2 2.529872e-01 5.673843e-01 5000.0 6.431342e-02 1.066913e-03
</event>
<event>
4 7 1.0 5000.0 7.905138e-03 7.739137e-02
21 -1 0 0 103 101  0.000000e+00  0.000000e+00  4.128345e+03  4.128345e+03 0.0 0.0 9.0
 2 -1 0 0 101   0  0.000000e+00  0.000000e+00 -1.527060e+03  1.527060e+03 0.0 0.0 9.0
22  1 1 2   0   0  6.998312e+02  2.295226e+03  2.133124e+03  3.210614e+03 0.0 0.0 9.0
 2  1 1 2 103   0 -6.998312e+02 -2.295226e+03  4.681614e+02  2.444791e+03 0.0022 0.0 9.0
#pdf 21 2 6.351300e-01 2.349323e-01 5000.0 3.588476e-04 8.053863e-02
</event>
<event>
4 7 1.0 5000.0 7.905138e-03 7.739137e-02
 2 -1 0 0 101   0  0.000000e+00  0.000000e+00  4.234282e+03  4.234282e+03 0.0 0.0 9.0
21 -1 0 0 103 101  0.000000e+00  0.000000e+00 -1.482138e+03  1.482138e+03 0.0 0.0 9.0
22  1 1 2   0   0  2.206768e+03  4.841236e+02  1.411264e+02  2.263651e+03 0.0 0.0 9.0
 2  1 1 2 103   0 -2.206768e+03 -4.841236e+02  2.611018e+03  3.452769e+03 0.0022 0.0 9.0
#pdf 2 21 6.514281e-01 2.280212e-01 5000.0 1.651802e-02 3.434397e-01
</event>
<event>
4 7 1.0 5000.0 7.905138e-03 7.739137e-02
21 -1 0 0 103 101  0.000000e+00  0.000000e+00  4.461331e+03  4.461331e+03 0.0 0.0 9.0
 2 -1 0 0 101   0  0.000000e+00  0.000000e+00 -1.458565e+03  1.458565e+03 0.0 0.0 9.0
 2  1 1 2 103   0  8.249248e+02  2.384988e+03  1.933173e+03  3.178966e+03 0.0022 0.0 9.0
22  1 1 2   0   0 -8.249248e+02 -2.384988e+03  1.069593e+03  2.740930e+03 0.0 0.0 9.0
#pdf 21 2 6.863587e-01 2.243947e-01 5000.0 1.416184e-04 9.195468e-02
</event>
<event>
4 7 1.0 5000.0 7.905138e-03 7.739137e-02
21 -1 0 0 103 101  0.000000e+00  0.000000e+00  2.262161e+03  2.262161e+03 0.0 0.0 9.0
 2 -1 0 0 101   0  0.000000e+00  0.000000e+00 -2.755272e+03  2.755272e+03 0.0 0.0 9.0
 2  1 1 2 103   0  1.095956e+03 -4.881675e+02 -2.446599e+03  2.724936e+03 0.0022 0.0 9.0
22  1 1 2   0   0 -1.095956e+03  4.881675e+02  1.953488e+03  2.292497e+03 0.0 0.0 9.0
#pdf 21 2 3.480247e-01 4.238880e-01 5000.0 1.999964e-02 7.735922e-03
</event>
<event>
4 7 1.0 5000.0 7.905138e-03 7.739137e-02
21 -1 0 0 103 101  0.000000e+00  0.000000e+00  1.928200e+03  1.928200e+03 0.0 0.0 9.0
 2 -1 0 0 101   0  0.000000e+00  0.000000e+00 -3.168720e+03  3.168720e+03 0.0 0.0 9.0
 2  1 1 2 103   0 -5.434282e+01  2.187524e+03  5.650398e+02  2.259975e+03 0.0022 0.0 9.0
22  1 1 2   0   0  5.434282e+01 -2.187524e+03 -1.805560e+03  2.836946e+03 0.0 0.0 9.0
#pdf 21 2 2.966462e-01 4.874954e-01 5000.0 3.756156e-02 3.344284e-03
</event>
<event>
4 7 1.0 5000.0 7.905138e-03 7.739137e-02
21 -1 0 0 103 101  0.000000e+00  0.000000e+00  3.259154e+03  3.259154e+03 0.0 0.0 9.0
 2 -1 0 0 101   0  0.000000e+00  0.000000e+00 -1.925588e+03  1.925588e+03 0.0 0.0 9.0
22  1 1 2   0   0 -1.527795e+03  1.900677e+03  1.260390e+03  2.745052e+03 0.0 0.0 9.0
 2  1 1 2 103   0  1.527795e+03 -1.900677e+03  7.317586e+01  2.439689e+03 0.0022 0.0 9.0
#pdf 21 2 5.014083e-01 2.962443e-01 5000.0 2.763882e-03 3.774917e-02
</event>
<event>
4 7 1.0 5000.0 7.905138e-03 7.739137e-02
21 -1 0 0 103 101  0.000000e+00  0.000000e+00  3.643730e+03  3.643730e+03 0.0 0.0 9.0
 2 -1 0 0 101   0  0.000000e+00  0.000000e+00 -1.728793e+03  1.728793e+03 0.0 0.0 9.0
 2  1 1 2 103   0 -1.056959e+03  9.878830e+02  3.152535e+03  3.468652e+03 0.0022 0.0 9.0
22  1 1 2   0   0  1.056959e+03 -9.878830e+02 -1.237597e+03  1.903870e+03 0.0 0.0 9.0
#pdf 21 2 5.605738e-01 2.659681e-01 5000.0 1.183119e-03 5.469695e-02
</event>
<event>
4 7 1.0 5000.0 7.905138e-03 7.739137e-02
 2 -1 0 0 101   0  0.000000e+00  0.000000e+00  1.616197e+03  1.616197e+03 0.0 0.0 9.0
21 -1 0 0 103 101  0.000000e+00  0.000000e+00 -4.120410e+03  4.120410e+03 0.0 0.0 9.0
22  1 1 2   0   0 -2.266016e+03  3.424295e+02  6.646050e+01  2.292707e+03 0.0 0.0 9.0
 2  1 1 2 103   0  2.266016e+03 -3.424295e+02 -2.570674e+03  3.443900e+03 0.0022 0.0 9.0
#pdf 2 21 2.486457e-01 6.339092e-01 5000.0 3.154248e-01 2.015833e-02
</event>
<event>
4 7 1.0 5000.0 7.905138e-03 7.739137e-02
21 -1 0 0 103 101  0.000000e+00  0.000000e+00  2.764533e+03  2.764533e+03 0.0 0.0 9.0
 2 -1 0 0 101   0  0.000000e+00  0.000000e+00 -2.203555e+03  2.203555e+03 0.0 0.0 9.0
22  1 1 2   0   0 -9.041729e+02  2.288571e+03  4.733365e+02  2.505820e+03 0.0 0.0 9.0
 2  1 1 2 103   0  9.041729e+02 -2.288571e+03  8.764150e+01  2.462269e+03 0.0022 0.0 9.0
#pdf 21 2 4.253128e-01 3.390085e-01 5000.0 7.595601e-03 2.233261e-02
</event>
<event>
4 7 1.0 5000.0 7.905138e-03 7.739137e-02
21 -1 0 0 103 101  0.000000e+00  0.000000e+00  1.879329e+03  1.879329e+03 0.0 0.0 9.0
 2 -1 0 0 101   0  0.000000e+00  0.000000e+00 -2.902947e+03  2.902947e+03 0.0 0.0 9.0
 2  1 1 2 103   0  1.843465e+03  1.349260e+03 -1.372073e+01  2.284525e+03 0.0022 0.0 9.0
22  1 1 2   0   0 -1.843465e+03 -1.349260e+03 -1.009898e+03  2.497751e+03 0.0 0.0 9.0
#pdf 21 2 2.891275e-01 4.466073e-01 5000.0 4.117168e-02 5.763234e-03
</event>
<event>
4 7 1.0 5000.0 7.905138e-03 7.739137e-02
 2 -1 0 0 101   0  0.000000e+00  0.000000e+00  3.877001e+03  3.877001e+03 0.0 0.0 9.0
21 -1 0 0 103 101  0.000000e+00  0.000000e+00 -1.612341e+03  1.612341e+03 0.0 0.0 9.0
22  1 1 2   0   0 -1.029219e+03  8.311524e+02 -1.196649e+03  1.783837e+03 0.0 0.0 9.0
 2  1 1 2 103   0  1.029219e+03 -8.311524e+02  3.461309e+03  3.705505e+03 0.0022 0.0 9.0
#pdf 2 21 5.964617e-01 2.480524e-01 5000.0 2.990621e-02 3.162266e-01
</event>
<event>
4 7 1.0 5000.0 7.905138e-03 7.739137e-02
21 -1 0 0 103 101  0.000000e+00  0.000000e+00  2.184417e+03  2.184417e+03 0.0 0.0 9.0
 2 -1 0 0 101   0  0.000000e+00  0.000000e+00 -2.927585e+03  2.927585e+03 0.0 0.0 9.0
22  1 1 2   0   0  8.097181e+02  1.507610e+03  1.510271e+03  2.282422e+03 0.0 0.0 9.0
 2  1 1 2 103   0 -8.097181e+02 -1.507610e+03 -2.253440e+03  2.829580e+03 0.0022 0.0 9.0
#pdf 21 2 3.360642e-01 4.503977e-01 5000.0 2.315591e-02 5.489066e-03
</event>
<event>
4 7 1.0 5000.0 7.905138e-03 7.739137e-02
 2 -1 0 0 101   0  0.000000e+00  0.000000e+00  3.938362e+03  3.938362e+03 0.0 0.0 9.0
21 -1 0 0 103 101  0.000000e+00  0.000000e+00 -1.523939e+03  1.523939e+03 0.0 0.0 9.0
22  1 1 2   0   0 -1.491554e+03  8.627390e+02 -7.342277e+02  1.873003e+03 0.0 0.0 9.0
 2  1 1 2 103   0  1.491554e+03 -8.627390e+02  3.148651e+03  3.589297e+03 0.0022 0.0 9.0
#pdf 2 21 6.059019e-01 2.344521e-01 5000.0 2.718215e-02 3.346271e-01
</event>
<event>
4 7 1.0 5000.0 7.905138e-03 7.739137e-02
21 -1 0 0 103 101  0.000000e+00  0.000000e+00  1.605681e+03  1.605681e+03 0.0 0.0 9.0
 2 -1 0 0 101   0  0.000000e+00  0.000000e+00 -3.924789e+03  3.924789e+03 0.0 0.0 9.0
 2  1 1 2 103   0  1.061380e+03  6.664933e+02 -3.555521e+03  3.769943e+03 0.0022 0.0 9.0
22  1 1 2   0   0 -1.061380e+03 -6.664933e+02  1.236413e+03  1.760527e+03 0.0 0.0 9.0
#pdf 21 2 2.470278e-01 6.038137e-01 5000.0 6.920153e-02 6.039322e-04
</event>
<event>
4 7 1.0 5000.0 7.905138e-03 7.739137e-02
21 -1 0 0 103 101  0.000000e+00  0.000000e+00  1.987536e+03  1.987536e+03 0.0 0.0 9.0
 2 -1 0 0 101   0  0.000000e+00  0.000000e+00 -2.238311e+03  2.238311e+03 0.0 0.0 9.0
 2  1 1 2 103   0 -8.114419e+02 -1.658600e+03  8.958894e+02  2.052318e+03 0.0022 0.0 9.0
22  1 1 2   0   0  8.114419e+02  1.658600e+03 -1.146664e+03  2.173529e+03 0.0 0.0 9.0
#pdf 21 2 3.057748e-01 3.443555e-01 5000.0 3.359412e-02 2.091851e-02
</event>
<event>
4 7 1.0 5000.0 7.905138e-03 7.739137e-02
21 -1 0 0 103 101  0.000000e+00  0.000000e+00  2.388139e+03  2.388139e+03 0.0 0.0 9.0
 2 -1 0 0 101   0  0.000000e+00  0.000000e+00 -2.586472e+03  2.586472e+03 0.0 0.0 9.0
22  1 1 2   0   0  1.182068e+03  6.520965e+02 -2.187533e+03  2.570567e+03 0.0 0.0 9.0
 2  1 1 2 103   0 -1.182068e+03 -6.520965e+02  1.989200e+03  2.404044e+03 0.0022 0.0 9.0
#pdf 21 2 3.674060e-01 3.979188e-01 5000.0 1.573975e-02 1.075759e-02
</event>
<event>
4 7 1.0 5000.0 7.905138e-03 7.739137e-02
 2 -1 0 0 101   0  0.000000e+00  0.000000e+00  4.119238e+03  4.119238e+03 0.0 0.0 9.0
21 -1 0 0 103 101  0.000000e+00  0.000000e+00 -1.714899e+03  1.714899e+03 0.0 0.0 9.0
22  1 1 2   0   0 -8.867441e+02  1.036536e+03 -1.301405e+03  1.885306e+03 0.0 0.0 9.0
 2  1 1 2 103   0  8.867441e+02 -1.036536e+03  3.705744e+03  3.948830e+03 0.0022 0.0 9.0
#pdf 2 21 6.337288e-01 2.638306e-01 5000.0 2.019870e-02 2.952628e-01
</event>
<event>
4 7 1.0 5000.0 7.905138e-03 7.739137e-02
21 -1 0 0 103 101  0.000000e+00  0.000000e+00  2.497668e+03  2.497668e+03 0.0 0.0 9.0
 2 -1 0 0 101   0  0.000000e+00  0.000000e+00 -2.358005e+03  2.358005e+03 0.0 0.0 9.0
22  1 1 2   0   0  2.096421e+03 -8.711446e+02 -7.882167e+02  2.403157e+03 0.0 0.0 9.0
 2  1 1 2 103   0 -2.096421e+03  8.711446e+02  9.278802e+02  2.452517e+03 0.0022 0.0 9.0
#pdf 21 2 3.842567e-01 3.627700e-01 5000.0 1.277581e-02 1.667302e-02
</event>
<event>
4 7 1.0 5000.0 7.905138e-03 7.739137e-02
 2 -1 0 0 101   0  0.000000e+00  0.000000e+00  2.355049e+03  2.355049e+03 0.0 0.0 9.0
21 -1 0 0 103 101  0.000000e+00  0.000000e+00 -2.678328e+03  2.678328e+03 0.0 0.0 9.0
 2  1 1 2 103   0 -2.101753e+03 -4.151485e+02 -1.475031e+03  2.601044e+03 0.0022 0.0 9.0
22  1 1 2   0   0  2.101753e+03  4.151485e+02  1.151752e+03  2.432333e+03 0.0 0.0 9.0
#pdf 2 21 3.623152e-01 4.120505e-01 5000.0 1.787618e-01 1.320526e-01
</event>
<event>
4 7 1.0 5000.0 7.905138e-03 7.739137e-02
21 -1 0 0 103 101  0.000000e+00  0.000000e+00  2.808019e+03  2.808019e+03 0.0 0.0 9.0
 2 -1 0 0 101   0  0.000000e+00  0.000000e+00 -2.246823e+03  2.246823e+03 0.0 0.0 9.0
22  1 1 2   0   0  1.122552e+02  1.017719e+03  2.588502e+03  2.783648e+03 0.0 0.0 9.0
 2  1 1 2 103   0 -1.122552e+02 -1.017719e+03 -2.027306e+03  2.271194e+03 0.0022 0.0 9.0
#pdf 21 2 4.320030e-01 3.456651e-01 5000.0 6.970270e-03 2.058618e-02
</event>
<event>
4 7 1.0 5000.0 7.905138e-03 7.739137e-02
21 -1 0 0 103 101  0.000000e+00  0.000000e+00  3.686391e+03  3.686391e+03 0.0 0.0 9.0
 2 -1 0 0 101   0  0.000000e+00  0.000000e+00 -1.694330e+03  1.694330e+03 0.0 0.0 9.0
 2  1 1 2 103   0 -5.716393e+02 -1.479661e+03  3.075025e+03  3.460050e+03 0.0022 0.0 9.0
22  1 1 2   0   0  5.716393e+02  1.479661e+03 -1.082964e+03  1.920672e+03 0.0 0.0 9.0
#pdf 21 2 5.671371e-01 2.606662e-01 5000.0 1.070966e-03 5.841892e-02
</event>
<event>
4 7 1.0 5000.0 7.905138e-03 7.739137e-02
 2 -1 0 0 101   0  0.000000e+00  0.000000e+00  1.923318e+03  1.923318e+03 0.0 0.0 9.0
21 -1 0 0 103 101  0.000000e+00  0.000000e+00 -3.286343e+03  3.286343e+03 0.0 0.0 9.0
22  1 1 2   0   0  1.362413e+03 -7.894065e+02  1.349158e+03  2.073537e+03 0.0 0.0 9.0
 2  1 1 2 103   0 -1.362413e+03  7.894065e+02 -2.712183e+03  3.136123e+03 0.0022 0.0 9.0
#pdf 2 21 2.958950e-01 5.055913e-01 5000.0 2.542456e-01 6.739563e-02
</event>
<event>
4 7 1.0 5000.0 7.905138e-03 7.739137e-02
21 -1 0 0 103 101  0.000000e+00  0.000000e+00  3.156422e+03  3.156422e+03 0.0 0.0 9.0
 2 -1 0 0 101   0  0.000000e+00  0.000000e+00 -1.953356e+03  1.953356e+03 0.0 0.0 9.0
22  1 1 2   0   0 -1.159730e+03 -9.057800e+02  2.659437e+03  3.039410e+03 0.0 0.0 9.0
 2  1 1 2 103   0  1.159730e+03  9.057800e+02 -1.456370e+03  2.070368e+03 0.0022 0.0 9.0
#pdf 21 2 4.856034e-01 3.005163e-01 5000.0 3.431246e-03 3.578377e-02
</event>
<event>
4 7 1.0 5000.0 7.905138e-03 7.739137e-02
21 -1 0 0 103 101  0.000000e+00  0.000000e+00  1.990462e+03  1.990462e+03 0.0 0.0 9.0
 2 -1 0 0 101   0  0.000000e+00  0.000000e+00 -3.114287e+03  3.114287e+03 0.0 0.0 9.0
 2  1 1 2 103   0 -1.324880e+03 -6.558573e+02  1.491826e+03  2.100238e+03 0.0022 0.0 9.0
22  1 1 2   0   0  1.324880e+03  6.558573e+02 -2.615650e+03  3.004511e+03 0.0 0.0 9.0
#pdf 21 2 3.062249e-01 4.791210e-01 5000.0 3.341024e-02 3.746682e-03
</event>
<event>
4 7 1.0 5000.0 7.905138e-03 7.739137e-02
 2 -1 0 0 101   0  0.000000e+00  0.000000e+00  2.420372e+03  2.420372e+03 0.0 0.0 9.0
21 -1 0 0 103 101  0.000000e+00  0.000000e+00 -2.605981e+03  2.605981e+03 0.0 0.0 9.0
22  1 1 2   0   0  7.850215e+02 -1.836306e+03 -1.616724e+03  2.569450e+03 0.0 0.0 9.0
 2  1 1 2 103   0 -7.850215e+02  1.836306e+03  1.431115e+03  2.456902e+03 0.0022 0.0 9.0
#pdf 2 21 3.723649e-01 4.009201e-01 5000.0 1.686144e-01 1.417540e-01
</event>
<event>
4 7 1.0 5000.0 7.905138e-03 7.739137e-02
 2 -1 0 0 101   0  0.000000e+00  0.000000e+00  3.510091e+03  3.510091e+03 0.0 0.0 9.0
21 -1 0 0 103 101  0.000000e+00  0.000000e+00 -1.807882e+03  1.807882e+03 0.0 0.0 9.0
22  1 1 2   0   0 -1.228672e+03  1.755720e+03 -5.466868e+02  2.211573e+03 0.0 0.0 9.0
 2  1 1 2 103   0  1.228672e+03 -1.755720e+03  2.248896e+03  3.106400e+03 0.0022 0.0 9.0
#pdf 2 21 5.400140e-01 2.781357e-01 5000.0 5.059680e-02 2.766608e-01
</event>
<event>
4 7 1.0 5000.0 7.905138e-03 7.739137e-02
21 -1 0 0 103 101  0.000000e+00  0.000000e+00  3.339542e+03  3.339542e+03 0.0 0.0 9.0
 2 -1 0 0 101   0  0.000000e+00  0.000000e+00 -1.766586e+03  1.766586e+03 0.0 0.0 9.0
 2  1 1 2 103   0 -6.068109e+02  7.928754e+02  3.113868e+03  3.270023e+03 0.0022 0.0 9.0
22  1 1 2   0   0  6.068109e+02 -7.928754e+02 -1.540912e+03  1.836105e+03 0.0 0.0 9.0
#pdf 21 2 5.137757e-01 2.717824e-01 5000.0 2.327458e-03 5.091728e-02
</event>
<event>
4 7 1.0 5000.0 7.905138e-03 7.739137e-02
21 -1 0 0 103 101  0.000000e+00  0.000000e+00  2.500091e+03  2.500091e+03 0.0 0.0 9.0
 2 -1 0 0 101   0  0.000000e+00  0.000000e+00 -2.401985e+03  2.401985e+03 0.0 0.0 9.0
22  1 1 2   0   0  8.888085e+02  1.585101e+03  1.693358e+03  2.483946e+03 0.0 0.0 9.0
 2  1 1 2 103   0 -8.888085e+02 -1.585101e+03 -1.595252e+03  2.418131e+03 0.0022 0.0 9.0
#pdf 21 2 3.846294e-01 3.695362e-01 5000.0 1.271600e-02 1.532394e-02
</event>
<event>
4 7 1.0 5000.0 7.905138e-03 7.739137e-02
 2 -1 0 0 101   0  0.000000e+00  0.000000e+00  1.478783e+03  1.478783e+03 0.0 0.0 9.0
21 -1 0 0 103 101  0.000000e+00  0.000000e+00 -4.321558e+03  4.321558e+03 0.0 0.0 9.0
22  1 1 2   0   0  1.013128e+03 -1.755036e+03 -3.155214e+03  3.749927e+03 0.0 0.0 9.0
 2  1 1 2 103   0 -1.013128e+03  1.755036e+03  3.124380e+02  2.050414e+03 0.0022 0.0 9.0
#pdf 2 21 2.275050e-01 6.648551e-01 5000.0 3.441458e-01 1.406648e-02
</event>
<event>
4 7 1.0 5000.0 7.905138e-03 7.739137e-02
 2 -1 0 0 101   0  0.000000e+00  0.000000e+00  2.205651e+03  2.205651e+03 0.0 0.0 9.0
21 -1 0 0 103 101  0.000000e+00  0.000000e+00 -2.747555e+03  2.747555e+03 0.0 0.0 9.0
 2  1 1 2 103   0  7.166558e+01 -1.789253e+03  1.428506e+03  2.290675e+03 0.0022 0.0 9.0
22  1 1 2   0   0 -7.166558e+01  1.789253e+03 -1.970409e+03  2.662532e+03 0.0 0.0 9.0
#pdf 2 21 3.393310e-01 4.227007e-01 5000.0 2.032725e-01 1.231770e-01
</event>
<event>
4 7 1.0 5000.0 7.905138e-03 7.739137e-02
21 -1 0 0 103 101  0.000000e+00  0.000000e+00  3.442828e+03  3.442828e+03 0.0 0.0 9.0
 2 -1 0 0 101   0  0.000000e+00  0.000000e+00 -1.807392e+03  1.807392e+03 0.0 0.0 9.0
22  1 1 2   0   0 -4.001546e+01 -7.415519e+02  3.323799e+03  3.405751e+03 0.0 0.0 9.0
 2  1 1 2 103   0  4.001546e+01  7.415519e+02 -1.688362e+03  1.844470e+03 0.0022 0.0 9.0
#pdf 21 2 5.296659e-01 2.780603e-01 5000.0 1.858930e-03 4.713698e-02
</event>
<event>
4 7 1.0 5000.0 7.905138e-03 7.739137e-02
 2 -1 0 0 101   0  0.000000e+00  0.000000e+00  3.066094e+03  3.066094e+03 0.0 0.0 9.0
21 -1 0 0 103 101  0.000000e+00  0.000000e+00 -1.891112e+03  1.891112e+03 0.0 0.0 9.0
 2  1 1 2 103   0  9.225847e+02 -2.216671e+03  3.989960e+02  2.433925e+03 0.0022 0.0 9.0
22  1 1 2   0   0 -9.225847e+02  2.216671e+03  7.759861e+02  2.523281e+03 0.0 0.0 9.0
#pdf 2 21 4.717068e-01 2.909403e-01 5000.0 8.744759e-02 2.604176e-01
</event>
<event>
4 7 1.0 5000.0 7.905138e-03 7.739137e-02
21 -1 0 0 103 101  0.000000e+00  0.000000e+00  1.508413e+03  1.508413e+03 0.0 0.0 9.0
 2 -1 0 0 101   0  0.000000e+00  0.000000e+00 -3.668719e+03  3.668719e+03 0.0 0.0 9.0
 2  1 1 2 103   0  5.984758e+02 -1.868518e+03  3.479711e+02  1.992641e+03 0.0022 0.0 9.0
22  1 1 2   0   0 -5.984758e+02  1.868518e+03 -2.508277e+03  3.184491e+03 0.0 0.0 9.0
#pdf 21 2 2.320636e-01 5.644183e-01 5000.0 8.346035e-02 1.116396e-03
</event>
<event>
4 7 1.0 5000.0 7.905138e-03 7.739137e-02
21 -1 0 0 103 101  0.000000e+00  0.000000e+00  2.201789e+03  2.201789e+03 0.0 0.0 9.0
 2 -1 0 0 101   0  0.000000e+00  0.000000e+00 -2.774910e+03  2.774910e+03 0.0 0.0 9.0
22  1 1 2   0   0  6.894657e+02  1.535389e+03  1.535809e+03  2.278484e+03 0.0 0.0 9.0
 2  1 1 2 103   0 -6.894657e+02 -1.535389e+03 -2.108930e+03  2.698215e+03 0.0022 0.0 9.0
#pdf 21 2 3.387368e-01 4.269093e-01 5000.0 2.240716e-02 7.440869e-03
</event>
<event>
4 7 1.0 5000.0 7.905138e-03 7.739137e-02
 2 -1 0 0 101   0  0.000000e+00  0.000000e+00  3.141302e+03  3.141302e+03 0.0 0.0 9.0
21 -1 0 0 103 101  0.000000e+00  0.000000e+00 -1.992642e+03  1.992642e+03 0.0 0.0 9.0
 2  1 1 2 103   0 -2.573014e+02 -5.819116e+02 -1.908247e+03  2.011525e+03 0.0022 0.0 9.0
22  1 1 2   0   0  2.573014e+02  5.819116e+02  3.056907e+03  3.122420e+03 0.0 0.0 9.0
#pdf 2 21 4.832773e-01 3.065603e-01 5000.0 8.018629e-02 2.412017e-01
</event>
<event>
4 7 1.0 5000.0 7.905138e-03 7.739137e-02
21 -1 0 0 103 101  0.000000e+00  0.000000e+00  3.157797e+03  3.157797e+03 0.0 0.0 9.0
 2 -1 0 0 101   0  0.000000e+00  0.000000e+00 -2.016134e+03  2.016134e+03 0.0 0.0 9.0
22  1 1 2   0   0  5.396370e+02 -1.088239e+03 -1.696635e+03  2.086634e+03 0.0 0.0 9.0
 2  1 1 2 103   0 -5.396370e+02  1.088239e+03  2.838298e+03  3.087297e+03 0.0022 0.0 9.0
#pdf 21 2 4.858149e-01 3.101745e-01 5000.0 3.421416e-03 3.182710e-02
</event>
<event>
4 7 1.0 5000.0 7.905138e-03 7.739137e-02
21 -1 0 0 103 101  0.000000e+00  0.000000e+00  1.772824e+03  1.772824e+03 0.0 0.0 9.0
 2 -1 0 0 101   0  0.000000e+00  0.000000e+00 -3.225521e+03  3.225521e+03 0.0 0.0 9.0
 2  1 1 2 103   0 -2.174328e+03  7.255191e+02 -1.438409e+03  2.706123e+03 0.0022 0.0 9.0
22  1 1 2   0   0  2.174328e+03 -7.255191e+02 -1.428727e+01  2.292222e+03 0.0 0.0 9.0
#pdf 21 2 2.727422e-01 4.962340e-01 5000.0 5.032026e-02 2.968728e-03
</event>
<event>
4 7 1.0 5000.0 7.905138e-03 7.739137e-02
 2 -1 0 0 101   0  0.000000e+00  0.000000e+00  3.165694e+03  3.165694e+03 0.0 0.0 9.0
21 -1 0 0 103 101  0.000000e+00  0.000000e+00 -2.004875e+03  2.004875e+03 0.0 0.0 9.0
22  1 1 2   0   0  1.672321e+03 -7.031372e+01 -1.351789e+03  2.151496e+03 0.0 0.0 9.0
 2  1 1 2 103   0 -1.672321e+03  7.031372e+01  2.512608e+03  3.019073e+03 0.0022 0.0 9.0
#pdf 2 21 4.870298e-01 3.084423e-01 5000.0 7.792566e-02 2.389330e-01
</event>
<event>
4 7 1.0 5000.0 7.905138e-03 7.739137e-02
 2 -1 0 0 101   0  0.000000e+00  0.000000e+00  1.894004e+03  1.894004e+03 0.0 0.0 9.0
21 -1 0 0 103 101  0.000000e+00  0.000000e+00 -3.422668e+03  3.422668e+03 0.0 0.0 9.0
 2  1 1 2 103   0  1.970030e+03  1.445690e+03 -1.760010e+01  2.443634e+03 0.0022 0.0 9.0
22  1 1 2   0   0 -1.970030e+03 -1.445690e+03 -1.511064e+03  2.873038e+03 0.0 0.0 9.0
#pdf 2 21 2.913853e-01 5.265643e-01 5000.0 2.598600e-01 5.676198e-02
</event>
<event>
4 7 1.0 5000.0 7.905138e-03 7.739137e-02
21 -1 0 0 103 101  0.000000e+00  0.000000e+00  1.995689e+03  1.995689e+03 0.0 0.0 9.0
 2 -1 0 0 101   0  0.000000e+00  0.000000e+00 -3.239506e+03  3.239506e+03 0.0 0.0 9.0
 2  1 1 2 103   0 -2.504260e+03 -9.161212e+01 -1.787090e+02  2.512299e+03 0.0022 0.0 9.0
22  1 1 2   0   0  2.504260e+03  9.161212e+01 -1.065108e+03  2.722896e+03 0.0 0.0 9.0
#pdf 21 2 3.070291e-01 4.983855e-01 5000.0 3.308337e-02 2.882059e-03
</event>
<event>
4 7 1.0 5000.0 7.905138e-03 7.739137e-02
 2 -1 0 0 101   0  0.000000e+00  0.000000e+00  2.606783e+03  2.606783e+03 0.0 0.0 9.0
21 -1 0 0 103 101  0.000000e+00  0.000000e+00 -2.453282e+03  2.453282e+03 0.0 0.0 9.0
22  1 1 2   0   0  3.863495e+02 -4.068279e+02 -2.390232e+03  2.455195e+03 0.0 0.0 9.0
 2  1 1 2 103   0 -3.863495e+02  4.068279e+02  2.543733e+03  2.604871e+03 0.0022 0.0 9.0
#pdf 2 21 4.010436e-01 3.774281e-01 5000.0 1.416439e-01 1.636520e-01
</event>
<event>
4 7 1.0 5000.0 7.905138e-03 7.739137e-02
21 -1 0 0 103 101  0.000000e+00  0.000000e+00  1.667164e+03  1.667164e+03 0.0 0.0 9.0
 2 -1 0 0 101   0  0.000000e+00  0.000000e+00 -3.726535e+03  3.726535e+03 0.0 0.0 9.0
 2  1 1 2 103   0  2.270402e+03  8.893165e+02 -4.704656e+02  2.483334e+03 0.0022 0.0 9.0
22  1 1 2   0   0 -2.270402e+03 -8.893165e+02 -1.588906e+03  2.910366e+03 0.0 0.0 9.0
#pdf 21 2 2.564868e-01 5.733132e-01 5000.0 6.156058e-02 9.739518e-04
</event>
<event>
4 7 1.0 5000.0 7.905138e-03 7.739137e-02
21 -1 0 0 103 101  0.000000e+00  0.000000e+00  2.482635e+03  2.482635e+03 0.0 0.0 9.0
 2 -1 0 0 101   0  0.000000e+00  0.000000e+00 -2.492740e+03  2.492740e+03 0.0 0.0 9.0
22  1 1 2   0   0 -1.542557e+03  1.011231e+03 -1.674336e+03  2.491078e+03 0.0 0.0 9.0
 2  1 1 2 103   0  1.542557e+03 -1.011231e+03  1.664230e+03  2.484297e+03 0.0022 0.0 9.0
#pdf 21 2 3.819438e-01 3.834985e-01 5000.0 1.315235e-02 1.289821e-02
</event>
<event>
4 7 1.0 5000.0 7.905138e-03 7.739137e-02
 2 -1 0 0 101   0  0.000000e+00  0.000000e+00  3.945684e+03  3.945684e+03 0.0 0.0 9.0
21 -1 0 0 103 101  0.000000e+00  0.000000e+00 -1.473121e+03  1.473121e+03 0.0 0.0 9.0
 2  1 1 2 103   0 -1.608008e+03 -8.228029e+02 -5.582223e+02  1.890583e+03 0.0022 0.0 9.0
22  1 1 2   0   0  1.608008e+03  8.228029e+02  3.030785e+03  3.528222e+03 0.0 0.0 9.0
#pdf 2 21 6.070283e-01 2.266341e-01 5000.0 2.686945e-02 3.453363e-01
</event>
<event>
4 7 1.0 5000.0 7.905138e-03 7.739137e-02
 2 -1 0 0 101   0  0.000000e+00  0.000000e+00  2.583539e+03  2.583539e+03 0.0 0.0 9.0
21 -1 0 0 103 101  0.000000e+00  0.000000e+00 -2.360965e+03  2.360965e+03 0.0 0.0 9.0
22  1 1 2   0   0 -2.147200e+03 -4.739264e+02  1.236959e+03  2.522923e+03 0.0 0.0 9.0
 2  1 1 2 103   0  2.147200e+03  4.739264e+02 -1.014386e+03  2.421581e+03 0.0022 0.0 9.0
#pdf 2 21 3.974675e-01 3.632254e-01 5000.0 1.448547e-01 1.778283e-01
</event>
<event>
4 7 1.0 5000.0 7.905138e-03 7.739137e-02
 2 -1 0 0 101   0  0.000000e+00  0.000000e+00  2.437961e+03  2.437961e+03 0.0 0.0 9.0
21 -1 0 0 103 101  0.000000e+00  0.000000e+00 -1.865641e+03  1.865641e+03 0.0 0.0 9.0
 2  1 1 2 103   0 -1.798291e+03  5.427895e+02  1.305106e+03  2.287307e+03 0.0022 0.0 9.0
22  1 1 2   0   0  1.798291e+03 -5.427895e+02 -7.327851e+02  2.016295e+03 0.0 0.0 9.0
#pdf 2 21 3.750709e-01 2.870216e-01 5000.0 1.659526e-01 2.653518e-01
</event>
<event>
4 7 1.0 5000.0 7.905138e-03 7.739137e-02
 2 -1 0 0 101   0  0.000000e+00  0.000000e+00  3.116112e+03  3.116112e+03 0.0 0.0 9.0
21 -1 0 0 103 101  0.000000e+00  0.000000e+00 -1.993027e+03  1.993027e+03 0.0 0.0 9.0
 2  1 1 2 103   0 -1.692490e+03  1.777399e+03  1.184734e+02  2.457174e+03 0.0022 0.0 9.0
22  1 1 2   0   0  1.692490e+03 -1.777399e+03  1.004612e+03  2.651964e+03 0.0 0.0 9.0
#pdf 2 21 4.794018e-01 3.066195e-01 5000.0 8.256831e-02 2.411301e-01
</event>
<event>
4 7 1.0 5000.0 7.905138e-03 7.739137e-02
 2 -1 0 0 101   0  0.000000e+00  0.000000e+00  1.807607e+03  1.807607e+03 0.0 0.0 9.0
21 -1 0 0 103 101  0.000000e+00  0.000000e+00 -3.442217e+03  3.442217e+03 0.0 0.0 9.0
 2  1 1 2 103   0  3.350441e+02  1.566891e+03  1.194445e+03  1.998524e+03 0.0022 0.0 9.0
22  1 1 2   0   0 -3.350441e+02 -1.566891e+03 -2.829054e+03  3.251300e+03 0.0 0.0 9.0
#pdf 2 21 2.780934e-01 5.295718e-01 5000.0 2.767150e-01 5.534246e-02
</event>
<event>
4 7 1.0 5000.0 7.905138e-03 7.739137e-02
 2 -1 0 0 101   0  0.000000e+00  0.000000e+00  4.743241e+03  4.743241e+03 0.0 0.0 9.0
21 -1 0 0 103 101  0.000000e+00  0.000000e+00 -1.226633e+03  1.226633e+03 0.0 0.0 9.0
 2  1 1 2 103   0 -1.523762e+03  1.662595e+03  6.994447e+02  2.361206e+03 0.0022 0.0 9.0
22  1 1 2   0   0  1.523762e+03 -1.662595e+03  2.817164e+03  3.608668e+03 0.0 0.0 9.0
#pdf 2 21 7.297294e-01 1.887127e-01 5000.0 5.840734e-03 3.975599e-01
</event>
<event>
4 7 1.0 5000.0 7.905138e-03 7.739137e-02
 2 -1 0 0 101   0  0.000000e+00  0.000000e+00  4.224852e+03  4.224852e+03 0.0 0.0 9.0
21 -1 0 0 103 101  0.000000e+00  0.000000e+00 -1.488701e+03  1.488701e+03 0.0 0.0 9.0
22  1 1 2   0   0  8.897683e+02 -2.128194e+03  2.469639e+02  2.319890e+03 0.0 0.0 9.0
 2  1 1 2 103   0 -8.897683e+02  2.128194e+03  2.489187e+03  3.393663e+03 0.0022 0.0 9.0
#pdf 2 21 6.499772e-01 2.290310e-01 5000.0 1.679782e-02 3.420571e-01
</event>
<event>
4 7 1.0 5000.0 7.905138e-03 7.739137e-02
 2 -1 0 0 101   0  0.000000e+00  0.000000e+00  3.041542e+03  3.041542e+03 0.0 0.0 9.0
21 -1 0 0 103 101  0.000000e+00  0.000000e+00 -1.985525e+03  1.985525e+03 0.0 0.0 9.0
22  1 1 2   0   0 -5.470782e+02  2.387908e+03  7.264836e+02  2.555226e+03 0.0 0.0 9.0
 2  1 1 2 103   0  5.470782e+02 -2.387908e+03  3.295333e+02  2.471840e+03 0.0022 0.0 9.0
#pdf 2 21 4.679295e-01 3.054653e-01 5000.0 8.991249e-02 2.425271e-01
</event>
<event>
4 7 1.0 5000.0 7.905138e-03 7.739137e-02
21 -1 0 0 103 101  0.000000e+00  0.000000e+00  2.095942e+03  2.095942e+03 0.0 0.0 9.0
 2 -1 0 0 101   0  0.000000e+00  0.000000e+00 -2.930911e+03  2.930911e+03 0.0 0.0 9.0
22  1 1 2   0   0  3.240490e+02 -1.568877e+03 -2.335326e+03  2.831983e+03 0.0 0.0 9.0
 2  1 1 2 103   0 -3.240490e+02  1.568877e+03  1.500357e+03  2.194870e+03 0.0022 0.0 9.0
#pdf 21 2 3.224527e-01 4.509094e-01 5000.0 2.735889e-02 5.452872e-03
</event>
<event>
4 7 1.0 5000.0 7.905138e-03 7.739137e-02
 2 -1 0 0 101   0  0.000000e+00  0.000000e+00  2.207962e+03  2.207962e+03 0.0 0.0 9.0
21 -1 0 0 103 101  0.000000e+00  0.000000e+00 -2.713106e+03  2.713106e+03 0.0 0.0 9.0
22  1 1 2   0   0 -1.492565e+03 -1.496870e+03  9.876990e+02  2.333221e+03 0.0 0.0 9.0
 2  1 1 2 103   0  1.492565e+03  1.496870e+03 -1.492843e+03  2.587847e+03 0.0022 0.0 9.0
#pdf 2 21 3.396864e-01 4.174009e-01 5000.0 2.028800e-01 1.275438e-01
</event>
<event>
4 7 1.0 5000.0 7.905138e-03 7.739137e-02
 2 -1 0 0 101   0  0.000000e+00  0.000000e+00  3.045229e+03  3.045229e+03 0.0 0.0 9.0
21 -1 0 0 103 101  0.000000e+00  0.000000e+00 -2.081758e+03  2.081758e+03 0.0 0.0 9.0
 2  1 1 2 103   0 -7.650911e+02  1.176662e+03 -1.646524e+03  2.163548e+03 0.0022 0.0 9.0
22  1 1 2   0   0  7.650911e+02 -1.176662e+03  2.609995e+03  2.963439e+03 0.0 0.0 9.0
#pdf 2 21 4.684968e-01 3.202705e-01 5000.0 8.953946e-02 2.249326e-01
</event>
<event>
4 7 1.0 5000.0 7.905138e-03 7.739137e-02
21 -1 0 0 103 101  0.000000e+00  0.000000e+00  3.407420e+03  3.407420e+03 0.0 0.0 9.0
 2 -1 0 0 101   0  0.000000e+00  0.000000e+00 -2.033058e+03  2.033058e+03 0.0 0.0 9.0
 2  1 1 2 103   0  2.304868e+03  1.270710e+03  6.675012e+02  2.715268e+03 0.0022 0.0 9.0
22  1 1 2   0   0 -2.304868e+03 -1.270710e+03  7.068608e+02  2.725211e+03 0.0 0.0 9.0
#pdf 21 2 5.242185e-01 3.127782e-01 5000.0 2.008312e-03 3.081775e-02
</event>
<event>
4 7 1.0 5000.0 7.905138e-03 7.739137e-02
 2 -1 0 0 101   0  0.000000e+00  0.000000e+00  2.298003e+03  2.298003e+03 0.0 0.0 9.0
21 -1 0 0 103 101  0.000000e+00  0.000000e+00 -2.668789e+03  2.668789e+03 0.0 0.0 9.0
22  1 1 2   0   0  2.046129e+03  7.199960e+02  1.012875e+03  2.393941e+03 0.0 0.0 9.0
 2  1 1 2 103   0 -2.046129e+03 -7.199960e+02 -1.383661e+03  2.572850e+03 0.0022 0.0 9.0
#pdf 2 21 3.535389e-01 4.105829e-01 5000.0 1.879053e-01 1.333063e-01
</event>
<event>
4 7 1.0 5000.0 7.905138e-03 7.739137e-02
 2 -1 0 0 101   0  0.000000e+00  0.000000e+00  2.248333e+03  2.248333e+03 0.0 0.0 9.0
21 -1 0 0 103 101  0.000000e+00  0.000000e+00 -2.727564e+03  2.727564e+03 0.0 0.0 9.0
22  1 1 2   0   0 -1.452880e+03 -2.746019e+02 -2.235399e+03  2.680164e+03 0.0 0.0 9.0
 2  1 1 2 103   0  1.452880e+03  2.746019e+02  1.756168e+03  2.295734e+03 0.0022 0.0 9.0
#pdf 2 21 3.458974e-01 4.196253e-01 5000.0 1.960859e-01 1.256987e-01
</event>
<event>
4 7 1.0 5000.0 7.905138e-03 7.739137e-02
21 -1 0 0 103 101  0.000000e+00  0.000000e+00  2.856728e+03  2.856728e+03 0.0 0.0 9.0
 2 -1 0 0 101   0  0.000000e+00  0.000000e+00 -1.978400e+03  1.978400e+03 0.0 0.0 9.0
22  1 1 2   0   0  8.446822e+02 -1.291920e+02  2.695160e+03  2.827378e+03 0.0 0.0 9.0
 2  1 1 2 103   0 -8.446822e+02  1.291920e+02 -1.816833e+03  2.007750e+03 0.0022 0.0 9.0
#pdf 21 2 4.394966e-01 3.043693e-01 5000.0 6.331807e-03 3.417222e-02
</event>
<event>
4 7 1.0 5000.0 7.905138e-03 7.739137e-02
 2 -1 0 0 101   0  0.000000e+00  0.000000e+00  3.534848e+03  3.534848e+03 0.0 0.0 9.0
21 -1 0 0 103 101  0.000000e+00  0.000000e+00 -1.775824e+03  1.775824e+03 0.0 0.0 9.0
22  1 1 2   0   0  1.325143e+03  1.028450e+03  2.851913e+03  3.308644e+03 0.0 0.0 9.0
 2  1 1 2 103   0 -1.325143e+03 -1.028450e+03 -1.092889e+03  2.002029e+03 0.0022 0.0 9.0
#pdf 2 21 5.438228e-01 2.732037e-01 5000.0 4.894918e-02 2.830232e-01
</event>
<event>
4 7 1.0 5000.0 7.905138e-03 7.739137e-02
21 -1 0 0 103 101  0.000000e+00  0.000000e+00  3.527997e+03  3.527997e+03 0.0 0.0 9.0
 2 -1 0 0 101   0  0.000000e+00  0.000000e+00 -1.752393e+03  1.752393e+03 0.0 0.0 9.0
22  1 1 2   0   0 -1.141574e+03 -1.189257e+03  2.864328e+03  3.304829e+03 0.0 0.0 9.0
 2  1 1 2 103   0  1.141574e+03  1.189257e+03 -1.088723e+03  1.975561e+03 0.0022 0.0 9.0
#pdf 21 2 5.427688e-01 2.695989e-01 5000.0 1.537044e-03 5.230301e-02
</event>
<event>
4 7 1.0 5000.0 7.905138e-03 7.739137e-02
 2 -1 0 0 101   0  0.000000e+00  0.000000e+00  3.700014e+03  3.700014e+03 0.0 0.0 9.0
21 -1 0 0 103 101  0.000000e+00  0.000000e+00 -1.735870e+03  1.735870e+03 0.0 0.0 9.0
 2  1 1 2 103   0  2.373892e+03  8.162122e+00  3.047445e+01  2.374102e+03 0.0022 0.0 9.0
22  1 1 2   0   0 -2.373892e+03 -8.162122e+00  1.933670e+03  3.061782e+03 0.0 0.0 9.0
#pdf 2 21 5.692329e-01 2.670569e-01 5000.0 3.890451e-02 2.910318e-01
</event>
<event>
4 7 1.0 5000.0 7.905138e-03 7.739137e-02
 2 -1 0 0 101   0  0.000000e+00  0.000000e+00  2.328672e+03  2.328672e+03 0.0 0.0 9.0
21 -1 0 0 103 101  0.000000e+00  0.000000e+00 -2.851632e+03  2.851632e+03 0.0 0.0 9.0
22  1 1 2   0   0 -1.328888e+03 -2.193486e+03 -8.811519e+00  2.564645e+03 0.0 0.0 9.0
 2  1 1 2 103   0  1.328888e+03  2.193486e+03 -5.141486e+02  2.615659e+03 0.0022 0.0 9.0
#pdf 2 21 3.582572e-01 4.387126e-01 5000.0 1.829571e-01 1.106093e-01
</event>
<event>
4 7 1.0 5000.0 7.905138e-03 7.739137e-02
21 -1 0 0 103 101  0.000000e+00  0.000000e+00  2.574322e+03  2.574322e+03 0.0 0.0 9.0
 2 -1 0 0 101   0  0.000000e+00  0.000000e+00 -2.417058e+03  2.417058e+03 0.0 0.0 9.0
 2  1 1 2 103   0  1.492520e+03 -1.750534e+03 -8.863672e+02  2.465286e+03 0.0022 0.0 9.0
22  1 1 2   0   0 -1.492520e+03  1.750534e+03  1.043632e+03  2.526094e+03 0.0 0.0 9.0
#pdf 21 2 3.960496e-01 3.718551e-01 5000.0 1.101321e-02 1.489198e-02
</event>
<event>
4 7 1.0 5000.0 7.905138e-03 7.739137e-02
 2 -1 0 0 101   0  0.000000e+00  0.000000e+00  3.436699e+03  3.436699e+03 0.0 0.0 9.0
21 -1 0 0 103 101  0.000000e+00  0.000000e+00 -1.808506e+03  1.808506e+03 0.0 0.0 9.0
 2  1 1 2 103   0 -2.061493e+03 -9.692360e+02  1.879712e+03  2.953386e+03 0.0022 0.0 9.0
22  1 1 2   0   0  2.061493e+03  9.692360e+02 -2.515186e+02  2.291819e+03 0.0 0.0 9.0
#pdf 2 21 5.287229e-01 2.782316e-01 5000.0 5.574076e-02 2.765376e-01
</event>
<event>
4 7 1.0 5000.0 7.905138e-03 7.739137e-02
 2 -1 0 0 101   0  0.000000e+00  0.000000e+00  2.863200e+03  2.863200e+03 0.0 0.0 9.0
21 -1 0 0 103 101  0.000000e+00  0.000000e+00 -2.056691e+03  2.056691e+03 0.0 0.0 9.0
22  1 1 2   0   0 -1.664540e+03 -1.592943e+03 -3.691379e+02  2.333329e+03 0.0 0.0 9.0
 2  1 1 2 103   0  1.664540e+03  1.592943e+03  1.175646e+03  2.586562e+03 0.0022 0.0 9.0
#pdf 2 21 4.404923e-01 3.164141e-01 5000.0 1.092645e-01 2.294505e-01
</event>
<event>
4 7 1.0 5000.0 7.905138e-03 7.739137e-02
 2 -1 0 0 101   0  0.000000e+00  0.000000e+00  2.036770e+03  2.036770e+03 0.0 0.0 9.0
21 -1 0 0 103 101  0.000000e+00  0.000000e+00 -3.103133e+03  3.103133e+03 0.0 0.0 9.0
22  1 1 2   0   0 -1.971741e+03  6.512419e+01 -2.126163e+03  2.900443e+03 0.0 0.0 9.0
 2  1 1 2 103   0  1.971741e+03 -6.512419e+01  1.059800e+03  2.239459e+03 0.0022 0.0 9.0
#pdf 2 21 3.133492e-01 4.774050e-01 5000.0 2.330724e-01 8.381551e-02
</event>
<event>
4 7 1.0 5000.0 7.905138e-03 7.739137e-02
21 -1 0 0 103 101  0.000000e+00  0.000000e+00  3.541069e+03  3.541069e+03 0.0 0.0 9.0
 2 -1 0 0 101   0  0.000000e+00  0.000000e+00 -1.753830e+03  1.753830e+03 0.0 0.0 9.0
 2  1 1 2 103   0  1.672320e+03 -6.346799e+02 -9.497802e+02  2.025229e+03 0.0022 0.0 9.0
22  1 1 2   0   0 -1.672320e+03  6.346799e+02  2.737019e+03  3.269670e+03 0.0 0.0 9.0
#pdf 21 2 5.447798e-01 2.698201e-01 5000.0 1.492860e-03 5.216083e-02
</event>
<event>
4 7 1.0 5000.0 7.905138e-03 7.739137e-02
21 -1 0 0 103 101  0.000000e+00  0.000000e+00  1.410517e+03  1.410517e+03 0.0 0.0 9.0
 2 -1 0 0 101   0  0.000000e+00  0.000000e+00 -4.401380e+03  4.401380e+03 0.0 0.0 9.0
22  1 1 2   0   0 -9.749813e+02  1.619868e+02 -4.162984e+03  4.278699e+03 0.0 0.0 9.0
 2  1 1 2 103   0  9.749813e+02 -1.619868e+02  1.172121e+03  1.533198e+03 0.0022 0.0 9.0
#pdf 21 2 2.170026e-01 6.771353e-01 5000.0 1.010835e-01 1.686486e-04
</event>
<event>
4 7 1.0 5000.0 7.905138e-03 7.739137e-02
21 -1 0 0 103 101  0.000000e+00  0.000000e+00  3.566563e+03  3.566563e+03 0.0 0.0 9.0
 2 -1 0 0 101   0  0.000000e+00  0.000000e+00 -1.786747e+03  1.786747e+03 0.0 0.0 9.0
22  1 1 2   0   0  1.650754e+02  1.698976e+03  2.861864e+03  3.332272e+03 0.0 0.0 9.0
 2  1 1 2 103   0 -1.650754e+02 -1.698976e+03 -1.082047e+03  2.021038e+03 0.0022 0.0 9.0
#pdf 21 2 5.487020e-01 2.748841e-01 5000.0 1.408760e-03 4.901348e-02
</event>
<event>
4 7 1.0 5000.0 7.905138e-03 7.739137e-02
21 -1 0 0 103 101  0.000000e+00  0.000000e+00  3.256339e+03  3.256339e+03 0.0 0.0 9.0
 2 -1 0 0 101   0  0.000000e+00  0.000000e+00 -1.918908e+03  1.918908e+03 0.0 0.0 9.0
 2  1 1 2 103   0  2.381131e+03  7.555309e+02  7.613169e+02  2.611555e+03 0.0022 0.0 9.0
22  1 1 2   0   0 -2.381131e+03 -7.555309e+02  5.761145e+02  2.563693e+03 0.0 0.0 9.0
#pdf 21 2 5.009753e-01 2.952166e-01 5000.0 2.780512e-03 3.823104e-02
</event>
<event>
4 7 1.0 5000.0 7.905138e-03 7.739137e-02
21 -1 0 0 103 101  0.000000e+00  0.000000e+00  3.179253e+03  3.179253e+03 0.0 0.0 9.0
 2 -1 0 0 101   0  0.000000e+00  0.000000e+00 -1.791947e+03  1.791947e+03 0.0 0.0 9.0
 2  1 1 2 103   0 -1.555760e+03 -1.059379e+03  2.222159e+03  2.912158e+03 0.0022 0.0 9.0
22  1 1 2   0   0  1.555760e+03  1.059379e+03 -8.348530e+02  2.059042e+03 0.0 0.0 9.0
#pdf 21 2 4.891159e-01 2.756841e-01 5000.0 3.271508e-03 4.853411e-02
</event>
<event>
4 7 1.0 5000.0 7.905138e-03 7.739137e-02
 2 -1 0 0 101   0  0.000000e+00  0.000000e+00  1.578167e+03  1.578167e+03 0.0 0.0 9.0
21 -1 0 0 103 101  0.000000e+00  0.000000e+00 -3.325054e+03  3.325054e+03 0.0 0.0 9.0
 2  1 1 2 103   0  2.016010e+03 -1.082705e+03 -7.614854e+02  2.411723e+03 0.0022 0.0 9.0
22  1 1 2   0   0 -2.016010e+03  1.082705e+03 -9.854012e+02  2.491498e+03 0.0 0.0 9.0
#pdf 2 21 2.427949e-01 5.115467e-01 5000.0 3.232983e-01 6.424172e-02
</event>
<event>
4 7 1.0 5000.0 7.905138e-03 7.739137e-02
21 -1 0 0 103 101  0.000000e+00  0.000000e+00  1.798164e+03  1.798164e+03 0.0 0.0 9.0
 2 -1 0 0 101   0  0.000000e+00  0.000000e+00 -3.417751e+03  3.417751e+03 0.0 0.0 9.0
 2  1 1 2 103   0  7.574909e+02  5.031268e+01 -3.292458e+03  3.378846e+03 0.0022 0.0 9.0
22  1 1 2   0   0 -7.574909e+02 -5.031268e+01  1.672871e+03  1.837069e+03 0.0 0.0 9.0
#pdf 21 2 2.766407e-01 5.258078e-01 5000.0 4.796695e-02 1.963682e-03
</event>
<event>
4 7 1.0 5000.0 7.905138e-03 7.739137e-02
 2 -1 0 0 101   0  0.000000e+00  0.000000e+00  3.007464e+03  3.007464e+03 0.0 0.0 9.0
21 -1 0 0 103 101  0.000000e+00  0.000000e+00 -2.022605e+03  2.022605e+03 0.0 0.0 9.0
 2  1 1 2 103   0  1.242567e+03  2.119709e+03  7.105932e+02  2.557750e+03 0.0022 0.0 9.0
22  1 1 2   0   0 -1.242567e+03 -2.119709e+03  2.742658e+02  2.472319e+03 0.0 0.0 9.0
#pdf 2 21 4.626868e-01 3.111700e-01 5000.0 9.340523e-02 2.356656e-01
</event>
<event>
4 7 1.0 5000.0 7.905138e-03 7.739137e-02
 2 -1 0 0 101   0  0.000000e+00  0.000000e+00  4.629528e+03  4.629528e+03 0.0 0.0 9.0
21 -1 0 0 103 101  0.000000e+00  0.000000e+00 -1.282776e+03  1.282776e+03 0.0 0.0 9.0
22  1 1 2   0   0 -2.667583e+02 -2.299606e+03  2.596660e+03  3.478791e+03 0.0 0.0 9.0
 2  1 1 2 103   0  2.667583e+02  2.299606e+03  7.500910e+02  2.433512e+03 0.0022 0.0 9.0
#pdf 2 21 7.122350e-01 1.973502e-01 5000.0 7.550269e-03 3.856956e-01
</event>
<event>
4 7 1.0 5000.0 7.905138e-03 7.739137e-02
21 -1 0 0 103 101  0.000000e+00  0.000000e+00  3.287316e+03  3.287316e+03 0.0 0.0 9.0
 2 -1 0 0 101   0  0.000000e+00  0.000000e+00 -1.466110e+03  1.466110e+03 0.0 0.0 9.0
22  1 1 2   0   0 -3.813728e+02 -1.531430e+03  2.562728e+03  3.009701e+03 0.0 0.0 9.0
 2  1 1 2 103   0  3.813728e+02  1.531430e+03 -7.415210e+02  1.743725e+03 0.0022 0.0 9.0
#pdf 21 2 5.057410e-01 2.255553e-01 5000.0 2.602876e-03 9.060156e-02
</event>
<event>
4 7 1.0 5000.0 7.905138e-03 7.739137e-02
21 -1 0 0 103 101  0.000000e+00  0.000000e+00  2.887739e+03  2.887739e+03 0.0 0.0 9.0
 2 -1 0 0 101   0  0.000000e+00  0.000000e+00 -2.139337e+03  2.139337e+03 0.0 0.0 9.0
22  1 1 2   0   0  1.650030e+03 -8.201198e+02 -1.312726e+03  2.262398e+03 0.0 0.0 9.0
 2  1 1 2 103   0 -1.650030e+03  8.201198e+02  2.061129e+03  2.764678e+03 0.0022 0.0 9.0
#pdf 21 2 4.442676e-01 3.291288e-01 5000.0 5.946170e-03 2.521374e-02
</event>
<event>
4 7 1.0 5000.0 7.905138e-03 7.739137e-02
 2 -1 0 0 101   0  0.000000e+00  0.000000e+00  1.973819e+03  1.973819e+03 0.0 0.0 9.0
21 -1 0 0 103 101  0.000000e+00  0.000000e+00 -3.138399e+03  3.138399e+03 0.0 0.0 9.0
22  1 1 2   0   0 -1.355868e+02 -8.982861e+02  1.797462e+03  2.013994e+03 0.0 0.0 9.0
 2  1 1 2 103   0  1.355868e+02  8.982861e+02 -2.962042e+03  3.098224e+03 0.0022 0.0 9.0
#pdf 2 21 3.036644e-01 4.828306e-01 5000.0 2.447160e-01 8.045835e-02
</event>
<event>
4 7 1.0 5000.0 7.905138e-03 7.739137e-02
 2 -1 0 0 101   0  0.000000e+00  0.000000e+00  2.639815e+03  2.639815e+03 0.0 0.0 9.0
21 -1 0 0 103 101  0.000000e+00  0.000000e+00 -2.286661e+03  2.286661e+03 0.0 0.0 9.0
22  1 1 2   0   0  1.645674e+03  1.804122e+03 -9.478759e+01  2.443785e+03 0.0 0.0 9.0
 2  1 1 2 103   0 -1.645674e+03 -1.804122e+03  4.479417e+02  2.482690e+03 0.0022 0.0 9.0
#pdf 2 21 4.061253e-01 3.517939e-01 5000.0 1.371601e-01 1.897552e-01
</event>
<event>
4 7 1.0 5000.0 7.905138e-03 7.739137e-02
 2 -1 0 0 101   0  0.000000e+00  0.000000e+00  2.871910e+03  2.871910e+03 0.0 0.0 9.0
21 -1 0 0 103 101  0.000000e+00  0.000000e+00 -1.954460e+03  1.954460e+03 0.0 0.0 9.0
 2  1 1 2 103   0  9.539022e+02 -2.067236e+03  1.126367e+03  2.540098e+03 0.0022 0.0 9.0
22  1 1 2   0   0 -9.539022e+02  2.067236e+03 -2.089177e+02  2.286272e+03 0.0 0.0 9.0
#pdf 2 21 4.418323e-01 3.006862e-01 5000.0 1.082576e-01 2.483605e-01
</event>
<event>
4 7 1.0 5000.0 7.905138e-03 7.739137e-02
21 -1 0 0 103 101  0.000000e+00  0.000000e+00  2.987141e+03  2.987141e+03 0.0 0.0 9.0
 2 -1 0 0 101   0  0.000000e+00  0.000000e+00 -2.099449e+03  2.099449e+03 0.0 0.0 9.0
 2  1 1 2 103   0 -1.814919e+03 -1.687655e+03  8.089467e+02  2.607011e+03 0.0022 0.0 9.0
22  1 1 2   0   0  1.814919e+03  1.687655e+03  7.874579e+01  2.479579e+03 0.0 0.0 9.0
#pdf 21 2 4.595602e-01 3.229921e-01 5000.0 4.863933e-03 2.717892e-02
</event>
<event>
4 7 1.0 5000.0 7.905138e-03 7.739137e-02
21 -1 0 0 103 101  0.000000e+00  0.000000e+00  3.058342e+03  3.058342e+03 0.0 0.0 9.0
 2 -1 0 0 101   0  0.000000e+00  0.000000e+00 -2.061928e+03  2.061928e+03 0.0 0.0 9.0
22  1 1 2   0   0 -1.374611e+03  1.646381e+03  1.829785e+03  2.819263e+03 0.0 0.0 9.0
 2  1 1 2 103   0  1.374611e+03 -1.646381e+03 -8.333706e+02  2.301007e+03 0.0022 0.0 9.0
#pdf 21 2 4.705142e-01 3.172197e-01 5000.0 4.205855e-03 2.917124e-02
</event>
<event>
4 7 1.0 5000.0 7.905138e-03 7.739137e-02
21 -1 0 0 103 101  0.000000e+00  0.000000e+00  3.537640e+03  3.537640e+03 0.0 0.0 9.0
 2 -1 0 0 101   0  0.000000e+00  0.000000e+00 -1.244892e+03  1.244892e+03 0.0 0.0 9.0
22  1 1 2   0   0 -1.874060e+02 -1.467741e+03 -5.493383e+02  1.578340e+03 0.0 0.0 9.0
 2  1 1 2 103   0  1.874060e+02  1.467741e+03  2.842087e+03  3.204192e+03 0.0022 0.0 9.0
#pdf 21 2 5.442524e-01 1.915218e-01 5000.0 1.504358e-03 1.405729e-01
</event>
<event>
4 7 1.0 5000.0 7.905138e-03 7.739137e-02
21 -1 0 0 103 101  0.000000e+00  0.000000e+00  3.181534e+03  3.181534e+03 0.0 0.0 9.0
 2 -1 0 0 101   0  0.000000e+00  0.000000e+00 -1.911591e+03  1.911591e+03 0.0 0.0 9.0
 2  1 1 2 103   0 -2.180340e+03  2.248338e+02 -5.320946e+02  2.255561e+03 0.0022 0.0 9.0
22  1 1 2   0   0  2.180340e+03 -2.248338e+02  1.802038e+03  2.837564e+03 0.0 0.0 9.0
#pdf 21 2 4.894668e-01 2.940909e-01 5000.0 3.255949e-03 3.876278e-02
</event>
<event>
4 7 1.0 5000.0 7.905138e-03 7.739137e-02
 2 -1 0 0 101   0  0.000000e+00  0.000000e+00  3.162411e+03  3.162411e+03 0.0 0.0 9.0
21 -1 0 0 103 101  0.000000e+00  0.000000e+00 -1.961083e+03  1.961083e+03 0.0 0.0 9.0
 2  1 1 2 103   0  1.774428e+03 -7.484177e+02  2.224875e+03  2.942583e+03 0.0022 0.0 9.0
22  1 1 2   0   0 -1.774428e+03  7.484177e+02 -1.023547e+03  2.180911e+03 0.0 0.0 9.0
#pdf 2 21 4.865248e-01 3.017050e-01 5000.0 7.822730e-02 2.471102e-01
</event>
<event>
4 7 1.0 5000.0 7.905138e-03 7.739137e-02
21 -1 0 0 103 101  0.000000e+00  0.000000e+00  3.719908e+03  3.719908e+03 0.0 0.0 9.0
 2 -1 0 0 101   0  0.000000e+00  0.000000e+00 -1.700302e+03  1.700302e+03 0.0 0.0 9.0
22  1 1 2   0   0 -3.946940e+02 -2.033392e+03 -5.272399e+02  2.137393e+03 0.0 0.0 9.0
 2  1 1 2 103   0  3.946940e+02  2.033392e+03  2.546846e+03  3.282818e+03 0.0022 0.0 9.0
#pdf 21 2 5.722936e-01 2.615850e-01 5000.0 9.893366e-04 5.775226e-02
</event>
<event>
4 7 1.0 5000.0 7.905138e-03 7.739137e-02
 2 -1 0 0 101   0  0.000000e+00  0.000000e+00  3.870096e+03  3.870096e+03 0.0 0.0 9.0
21 -1 0 0 103 101  0.000000e+00  0.000000e+00 -1.558164e+03  1.558164e+03 0.0 0.0 9.0
 2  1 1 2 103   0 -9.716888e+02  1.909282e+03 -1.706665e+02  2.149108e+03 0.0022 0.0 9.0
22  1 1 2   0   0  9.716888e+02 -1.909282e+03  2.482599e+03  3.279152e+03 0.0 0.0 9.0
#pdf 2 21 5.953994e-01 2.397175e-01 5000.0 3.022485e-02 3.274499e-01
</event>
<event>
4 7 1.0 5000.0 7.905138e-03 7.739137e-02
 2 -1 0 0 101   0  0.000000e+00  0.000000e+00  2.792176e+03  2.792176e+03 0.0 0.0 9.0
21 -1 0 0 103 101  0.000000e+00  0.000000e+00 -2.196684e+03  2.196684e+03 0.0 0.0 9.0
22  1 1 2   0   0  6.887323e+02 -4.852699e+02  2.643398e+03  2.774417e+03 0.0 0.0 9.0
 2  1 1 2 103   0 -6.887323e+02  4.852699e+02 -2.047906e+03  2.214443e+03 0.0022 0.0 9.0
#pdf 2 21 4.295655e-01 3.379514e-01 5000.0 1.176748e-01 2.047996e-01
</event>
<event>
4 7 1.0 5000.0 7.905138e-03 7.739137e-02
21 -1 0 0 103 101  0.000000e+00  0.000000e+00  1.760762e+03  1.760762e+03 0.0 0.0 9.0
 2 -1 0 0 101   0  0.000000e+00  0.000000e+00 -3.698612e+03  3.698612e+03 0.0 0.0 9.0
 2  1 1 2 103   0 -1.730493e+03 -1.505556e+00 -2.975137e+03  3.441809e+03 0.0022 0.0 9.0
22  1 1 2   0   0  1.730493e+03  1.505556e+00  1.037286e+03  2.017566e+03 0.0 0.0 9.0
#pdf 21 2 2.708864e-01 5.690173e-01 5000.0 5.148117e-02 1.040484e-03
</event>
<event>
4 7 1.0 5000.0 7.905138e-03 7.739137e-02
 2 -1 0 0 101   0  0.000000e+00  0.000000e+00  2.259083e+03  2.259083e+03 0.0 0.0 9.0
21 -1 0 0 103 101  0.000000e+00  0.000000e+00 -2.790068e+03  2.790068e+03 0.0 0.0 9.0
22  1 1 2   0   0  1.676221e+03 -1.579217e+03  7.397573e+02  2.418860e+03 0.0 0.0 9.0
 2  1 1 2 103   0 -1.676221e+03  1.579217e+03 -1.270743e+03  2.630291e+03 0.0022 0.0 9.0
#pdf 2 21 3.475512e-01 4.292413e-01 5000.0 1.942982e-01 1.179306e-01
</event>
<event>
4 7 1.0 5000.0 7.905138e-03 7.739137e-02
 2 -1 0 0 101   0  0.000000e+00  0.000000e+00  2.534771e+03  2.534771e+03 0.0 0.0 9.0
21 -1 0 0 103 101  0.000000e+00  0.000000e+00 -2.505881e+03  2.505881e+03 0.0 0.0 9.0
22  1 1 2   0   0 -2.227194e+03 -9.564279e+02  7.048810e+02  2.524283e+03 0.0 0.0 9.0
 2  1 1 2 103   0  2.227194e+03  9.564279e+02 -6.759913e+02  2.516369e+03 0.0022 0.0 9.0
#pdf 2 21 3.899647e-01 3.855202e-01 5000.0 1.517291e-01 1.558927e-01
</event>
<event>
4 7 1.0 5000.0 7.905138e-03 7.739137e-02
 2 -1 0 0 101   0  0.000000e+00  0.000000e+00  1.925933e+03  1.925933e+03 0.0 0.0 9.0
21 -1 0 0 103 101  0.000000e+00  0.000000e+00 -3.326755e+03  3.326755e+03 0.0 0.0 9.0
 2  1 1 2 103   0 -2.309366e+03 -9.499101e+02 -2.705895e+02  2.511717e+03 0.0022 0.0 9.0
22  1 1 2   0   0  2.309366e+03  9.499101e+02 -1.130232e+03  2.740972e+03 0.0 0.0 9.0
#pdf 2 21 2.962974e-01 5.118085e-01 5000.0 2.537481e-01 6.410552e-02
</event>
<event>
4 7 1.0 5000.0 7.905138e-03 7.739137e-02
21 -1 0 0 103 101  0.000000e+00  0.000000e+00  3.461131e+03  3.461131e+03 0.0 0.0 9.0
 2 -1 0 0 101   0  0.000000e+00  0.000000e+00 -1.792760e+03  1.792760e+03 0.0 0.0 9.0
22  1 1 2   0   0  5.532188e+02 -1.043759e+03  3.146946e+03  3.361362e+03 0.0 0.0 9.0
 2  1 1 2 103   0 -5.532188e+02  1.043759e+03 -1.478575e+03  1.892529e+03 0.0022 0.0 9.0
#pdf 21 2 5.324818e-01 2.758092e-01 5000.0 1.785251e-03 4.845957e-02
</event>
<event>
4 7 1.0 5000.0 7.905138e-03 7.739137e-02
21 -1 0 0 103 101  0.000000e+00  0.000000e+00  1.862640e+03  1.862640e+03 0.0 0.0 9.0
 2 -1 0 0 101   0  0.000000e+00  0.000000e+00 -3.124413e+03  3.124413e+03 0.0 0.0 9.0
 2  1 1 2 103   0 -8.911845e+02 -2.075419e+03  2.450084e+02  2.271917e+03 0.0022 0.0 9.0
22  1 1 2   0   0  8.911845e+02  2.075419e+03 -1.506781e+03  2.715136e+03 0.0 0.0 9.0
#pdf 21 2 2.865600e-01 4.806789e-01 5000.0 4.247174e-02 3.668436e-03
</event>
<event>
4 7 1.0 5000.0 7.905138e-03 7.739137e-02
 2 -1 0 0 101   0  0.000000e+00  0.000000e+00  1.898234e+03  1.898234e+03 0.0 0.0 9.0
21 -1 0 0 103 101  0.000000e+00  0.000000e+00 -3.316701e+03  3.316701e+03 0.0 0.0 9.0
 2  1 1 2 103   0  6.326148e+01 -1.750830e+03  1.157380e+03  2.099747e+03 0.0022 0.0 9.0
22  1 1 2   0   0 -6.326148e+01  1.750830e+03 -2.575847e+03  3.115188e+03 0.0 0.0 9.0
#pdf 2 21 2.920360e-01 5.102617e-01 5000.0 2.590457e-01 6.491323e-02
</event>
<event>
4 7 1.0 5000.0 7.905138e-03 7.739137e-02
 2 -1 0 0 101   0  0.000000e+00  0.000000e+00  2.072450e+03  2.072450e+03 0.0 0.0 9.0
21 -1 0 0 103 101  0.000000e+00  0.000000e+00 -2.843729e+03  2.843729e+03 0.0 0.0 9.0
22  1 1 2   0   0  9.072724e+02 -2.243346e+03 -1.889303e+02  2.427228e+03 0.0 0.0 9.0
 2  1 1 2 103   0 -9.072724e+02  2.243346e+03 -5.823493e+02  2.488950e+03 0.0022 0.0 9.0
#pdf 2 21 3.188384e-01 4.374968e-01 5000.0 2.266057e-01 1.115331e-01
</event>
<event>
4 7 1.0 5000.0 7.905138e-03 7.739137e-02
 2 -1 0 0 101   0  0.000000e+00  0.000000e+00  2.297441e+03  2.297441e+03 0.0 0.0 9.0
21 -1 0 0 103 101  0.000000e+00  0.000000e+00 -2.581118e+03  2.581118e+03 0.0 0.0 9.0
22  1 1 2   0   0 -1.623515e+03 -1.693950e+03 -7.946350e+02  2.477238e+03 0.0 0.0 9.0
 2  1 1 2 103   0  1.623515e+03  1.693950e+03  5.109578e+02  2.401321e+03 0.0022 0.0 9.0
#pdf 2 21 3.534525e-01 3.970951e-01 5000.0 1.879966e-01 1.451915e-01
</event>
<event>
4 7 1.0 5000.0 7.905138e-03 7.739137e-02
 2 -1 0 0 101   0  0.000000e+00  0.000000e+00  3.508444e+03  3.508444e+03 0.0 0.0 9.0
21 -1 0 0 103 101  0.000000e+00  0.000000e+00 -1.798189e+03  1.798189e+03 0.0 0.0 9.0
22  1 1 2   0   0  1.388033e+03  6.702067e+02 -1.239843e+03  1.978136e+03 0.0 0.0 9.0
 2  1 1 2 103   0 -1.388033e+03 -6.702067e+02  2.950098e+03  3.328497e+03 0.0022 0.0 9.0
#pdf 2 21 5.397606e-01 2.766444e-01 5000.0 5.070791e-02 2.785778e-01
</event>
<event>
4 7 1.0 5000.0 7.905138e-03 7.739137e-02
 2 -1 0 0 101   0  0.000000e+00  0.000000e+00  2.100914e+03  2.100914e+03 0.0 0.0 9.0
21 -1 0 0 103 101  0.000000e+00  0.000000e+00 -2.856224e+03  2.856224e+03 0.0 0.0 9.0
 2  1 1 2 103   0  1.283808e+03 -1.602367e+03 -1.729454e+03  2.684540e+03 0.0022 0.0 9.0
22  1 1 2   0   0 -1.283808e+03  1.602367e+03  9.741442e+02  2.272598e+03 0.0 0.0 9.0
#pdf 2 21 3.232175e-01 4.394190e-01 5000.0 2.215074e-01 1.100745e-01
</event>
<event>
4 7 1.0 5000.0 7.905138e-03 7.739137e-02
 2 -1 0 0 101   0  0.000000e+00  0.000000e+00  4.062492e+03  4.062492e+03 0.0 0.0 9.0
21 -1 0 0 103 101  0.000000e+00  0.000000e+00 -1.547782e+03  1.547782e+03 0.0 0.0 9.0
22  1 1 2   0   0 -5.192792e+02  1.987393e+03  2.866250e+03  3.526297e+03 0.0 0.0 9.0
 2  1 1 2 103   0  5.192792e+02 -1.987393e+03 -3.515389e+02  2.083977e+03 0.0022 0.0 9.0
#pdf 2 21 6.249988e-01 2.381202e-01 5000.0 2.222690e-02 3.296191e-01
</event>
<event>
4 7 1.0 5000.0 7.905138e-03 7.739137e-02
 2 -1 0 0 101   0  0.000000e+00  0.000000e+00  3.541755e+03  3.541755e+03 0.0 0.0 9.0
21 -1 0 0 103 101  0.000000e+00  0.000000e+00 -1.780773e+03  1.780773e+03 0.0 0.0 9.0
22  1 1 2   0   0  1.956317e+03  8.670884e+02  2.273493e+03  3.122145e+03 0.0 0.0 9.0
 2  1 1 2 103   0 -1.956317e+03 -8.670884e+02 -5.125110e+02  2.200383e+03 0.0022 0.0 9.0
#pdf 2 21 5.448854e-01 2.739651e-01 5000.0 4.849597e-02 2.820369e-01
</event>
<event>
4 7 1.0 5000.0 7.905138e-03 7.739137e-02
21 -1 0 0 103 101  0.000000e+00  0.000000e+00  2.357155e+03  2.357155e+03 0.0 0.0 9.0
 2 -1 0 0 101   0  0.000000e+00  0.000000e+00 -2.811824e+03  2.811824e+03 0.0 0.0 9.0
22  1 1 2   0   0 -9.678748e+02 -1.581492e+03  1.565675e+03  2.426775e+03 0.0 0.0 9.0
 2  1 1 2 103   0  9.678748e+02  1.581492e+03 -2.020343e+03  2.742204e+03 0.0022 0.0 9.0
#pdf 21 2 3.626393e-01 4.325882e-01 5000.0 1.669979e-02 6.918389e-03
</event>
<event>
4 7 1.0 5000.0 7.905138e-03 7.739137e-02
21 -1 0 0 103 101  0.000000e+00  0.000000e+00  2.673553e+03  2.673553e+03 0.0 0.0 9.0
 2 -1 0 0 101   0  0.000000e+00  0.000000e+00 -2.235177e+03  2.235177e+03 0.0 0.0 9.0
 2  1 1 2 103   0  1.084391e+02 -1.793070e+03 -1.445476e+03  2.305702e+03 0.0022 0.0 9.0
22  1 1 2   0   0 -1.084391e+02  1.793070e+03  1.883852e+03  2.603029e+03 0.0 0.0 9.0
#pdf 21 2 4.113159e-01 3.438734e-01 5000.0 9.080395e-03 2.104213e-02
</event>
<event>
4 7 1.0 5000.0 7.905138e-03 7.739137e-02
21 -1 0 0 103 101  0.000000e+00  0.000000e+00  3.369227e+03  3.369227e+03 0.0 0.0 9.0
 2 -1 0 0 101   0  0.000000e+00  0.000000e+00 -1.888924e+03  1.888924e+03 0.0 0.0 9.0
22  1 1 2   0   0  1.148033e+03  1.921275e+03 -4.729301e+02  2.287562e+03 0.0 0.0 9.0
 2  1 1 2 103   0 -1.148033e+03 -1.921275e+03  1.953233e+03  2.970589e+03 0.0022 0.0 9.0
#pdf 21 2 5.183426e-01 2.906037e-01 5000.0 2.182243e-03 4.044250e-02
</event>
<event>
4 7 1.0 5000.0 7.905138e-03 7.739137e-02
 2 -1 0 0 101   0  0.000000e+00  0.000000e+00  2.996659e+03  2.996659e+03 0.0 0.0 9.0
21 -1 0 0 103 101  0.000000e+00  0.000000e+00 -1.811283e+03  1.811283e+03 0.0 0.0 9.0
22  1 1 2   0   0 -3.138926e+02 -5.828561e+02 -1.712191e+03  1.835714e+03 0.0 0.0 9.0
 2  1 1 2 103   0  3.138926e+02  5.828561e+02  2.897566e+03  2.972228e+03 0.0022 0.0 9.0
#pdf 2 21 4.610245e-01 2.786590e-01 5000.0 9.453294e-02 2.759895e-01
</event>
<event>
4 7 1.0 5000.0 7.905138e-03 7.739137e-02
 2 -1 0 0 101   0  0.000000e+00  0.000000e+00  2.167295e+03  2.167295e+03 0.0 0.0 9.0
21 -1 0 0 103 101  0.000000e+00  0.000000e+00 -2.478442e+03  2.478442e+03 0.0 0.0 9.0
 2  1 1 2 103   0  1.605811e+03 -5.036618e+02 -1.752649e+03  2.429832e+03 0.0022 0.0 9.0
22  1 1 2   0   0 -1.605811e+03  5.036618e+02  1.441502e+03  2.215904e+03 0.0 0.0 9.0
#pdf 2 21 3.334299e-01 3.812987e-01 5000.0 2.098466e-01 1.599129e-01
</event>
<event>
4 7 1.0 5000.0 7.905138e-03 7.739137e-02
 2 -1 0 0 101   0  0.000000e+00  0.000000e+00  3.978570e+03  3.978570e+03 0.0 0.0 9.0
21 -1 0 0 103 101  0.000000e+00  0.000000e+00 -1.504180e+03  1.504180e+03 0.0 0.0 9.0
 2  1 1 2 103   0  9.706265e+02 -1.772096e+03 -3.082930e+02  2.043889e+03 0.0022 0.0 9.0
22  1 1 2   0   0 -9.706265e+02  1.772096e+03  2.782684e+03  3.438861e+03 0.0 0.0 9.0
#pdf 2 21 6.120878e-01 2.314123e-01 5000.0 2.549647e-02 3.387929e-01
</event>
<event>
4 7 1.0 5000.0 7.905138e-03 7.739137e-02
21 -1 0 0 103 101  0.000000e+00  0.000000e+00  3.329652e+03  3.329652e+03 0.0 0.0 9.0
 2 -1 0 0 101   0  0.000000e+00  0.000000e+00 -1.877355e+03  1.877355e+03 0.0 0.0 9.0
22  1 1 2   0   0 -1.009050e+03 -5.603890e+02 -1.583318e+03  1.959366e+03 0.0 0.0 9.0
 2  1 1 2 103   0  1.009050e+03  5.603890e+02  3.035615e+03  3.247641e+03 0.0022 0.0 9.0
#pdf 21 2 5.122541e-01 2.888239e-01 5000.0 2.377542e-03 4.132323e-02
</event>
<event>
4 7 1.0 5000.0 7.905138e-03 7.739137e-02
21 -1 0 0 103 101  0.000000e+00  0.000000e+00  3.607932e+03  3.607932e+03 0.0 0.0 9.0
 2 -1 0 0 101   0  0.000000e+00  0.000000e+00 -1.523851e+03  1.523851e+03 0.0 0.0 9.0
22  1 1 2   0   0 -7.736523e+02 -1.936009e+03  2.216205e+03  3.042735e+03 0.0 0.0 9.0
 2  1 1 2 103   0  7.736523e+02  1.936009e+03 -1.321240e+02  2.089049e+03 0.0022 0.0 9.0
#pdf 21 2 5.550665e-01 2.344386e-01 5000.0 1.283034e-03 8.103336e-02
</event>
<event>
4 7 1.0 5000.0 7.905138e-03 7.739137e-02
21 -1 0 0 103 101  0.000000e+00  0.000000e+00  3.261595e+03  3.261595e+03 0.0 0.0 9.0
 2 -1 0 0 101   0  0.000000e+00  0.000000e+00 -1.997379e+03  1.997379e+03 0.0 0.0 9.0
22  1 1 2   0   0 -1.849360e+03  5.290983e+02 -1.096240e+03  2.214006e+03 0.0 0.0 9.0
 2  1 1 2 103   0  1.849360e+03 -5.290983e+02  2.360456e+03  3.044968e+03 0.0022 0.0 9.0
#pdf 21 2 5.017838e-01 3.072891e-01 5000.0 2.749540e-03 3.297816e-02
</event>
<event>
4 7 1.0 5000.0 7.905138e-03 7.739137e-02
 2 -1 0 0 101   0  0.000000e+00  0.000000e+00  1.488844e+03  1.488844e+03 0.0 0.0 9.0
21 -1 0 0 103 101  0.000000e+00  0.000000e+00 -4.219927e+03  4.219927e+03 0.0 0.0 9.0
 2  1 1 2 103   0  7.454103e+02  1.209851e+03 -3.716881e+03  3.979269e+03 0.0022 0.0 9.0
22  1 1 2   0   0 -7.454103e+02 -1.209851e+03  9.857989e+02  1.729502e+03 0.0 0.0 9.0
#pdf 2 21 2.290529e-01 6.492195e-01 5000.0 3.420270e-01 1.694544e-02
</event>
<event>
4 7 1.0 5000.0 7.905138e-03 7.739137e-02
 2 -1 0 0 101   0  0.000000e+00  0.000000e+00  1.322606e+03  1.322606e+03 0.0 0.0 9.0
21 -1 0 0 103 101  0.000000e+00  0.000000e+00 -4.643770e+03  4.643770e+03 0.0 0.0 9.0
22  1 1 2   0   0 -6.556724e+02 -1.130988e+03 -4.194958e+03  4.393940e+03 0.0 0.0 9.0
 2  1 1 2 103   0  6.556724e+02  1.130988e+03  8.737936e+02  1.572436e+03 0.0022 0.0 9.0
#pdf 2 21 2.034779e-01 7.144262e-01 5000.0 3.772413e-01 7.317894e-03
</event>
<event>
4 7 1.0 5000.0 7.905138e-03 7.739137e-02
 2 -1 0 0 101   0  0.000000e+00  0.000000e+00  2.144127e+03  2.144127e+03 0.0 0.0 9.0
21 -1 0 0 103 101  0.000000e+00  0.000000e+00 -2.906961e+03  2.906961e+03 0.0 0.0 9.0
 2  1 1 2 103   0  1.203315e+03 -9.378469e+01  1.829377e+03  2.191662e+03 0.0022 0.0 9.0
22  1 1 2   0   0 -1.203315e+03  9.378469e+01 -2.592211e+03  2.859427e+03 0.0 0.0 9.0
#pdf 2 21 3.298657e-01 4.472248e-01 5000.0 2.138768e-01 1.042599e-01
</event>
<event>
4 7 1.0 5000.0 7.905138e-03 7.739137e-02
 2 -1 0 0 101   0  0.000000e+00  0.000000e+00  3.944352e+03  3.944352e+03 0.0 0.0 9.0
21 -1 0 0 103 101  0.000000e+00  0.000000e+00 -1.572805e+03  1.572805e+03 0.0 0.0 9.0
22  1 1 2   0   0 -1.128195e+03 -1.445235e+03 -6.814008e+02  1.955974e+03 0.0 0.0 9.0
 2  1 1 2 103   0  1.128195e+03  1.445235e+03  3.052948e+03  3.561183e+03 0.0022 0.0 9.0
#pdf 2 21 6.068234e-01 2.419700e-01 5000.0 2.692613e-02 3.244072e-01
</event>
<event>
4 7 1.0 5000.0 7.905138e-03 7.739137e-02
21 -1 0 0 103 101  0.000000e+00  0.000000e+00  1.990366e+03  1.990366e+03 0.0 0.0 9.0
 2 -1 0 0 101   0  0.000000e+00  0.000000e+00 -3.228686e+03  3.228686e+03 0.0 0.0 9.0
 2  1 1 2 103   0  2.275063e+03 -2.225626e+02 -1.747193e+03  2.877173e+03 0.0022 0.0 9.0
22  1 1 2   0   0 -2.275063e+03  2.225626e+02  5.088730e+02  2.341879e+03 0.0 0.0 9.0
#pdf 21 2 3.062102e-01 4.967209e-01 5000.0 3.341624e-02 2.948931e-03
</event>
<event>
4 7 1.0 5000.0 7.905138e-03 7.739137e-02
 2 -1 0 0 101   0  0.000000e+00  0.000000e+00  2.213369e+03  2.213369e+03 0.0 0.0 9.0
21 -1 0 0 103 101  0.000000e+00  0.000000e+00 -2.694201e+03  2.694201e+03 0.0 0.0 9.0
22  1 1 2   0   0 -1.139330e+03  1.450586e+03 -1.848462e+03  2.611338e+03 0.0 0.0 9.0
 2  1 1 2 103   0  1.139330e+03 -1.450586e+03  1.367629e+03  2.296233e+03 0.0022 0.0 9.0
#pdf 2 21 3.405183e-01 4.144925e-01 5000.0 2.019629e-01 1.299825e-01
</event>
<event>
4 7 1.0 5000.0 7.905138e-03 7.739137e-02
 2 -1 0 0 101   0  0.000000e+00  0.000000e+00  2.375941e+03  2.375941e+03 0.0 0.0 9.0
21 -1 0 0 103 101  0.000000e+00  0.000000e+00 -2.368514e+03  2.368514e+03 0.0 0.0 9.0
22  1 1 2   0   0  2.058732e+03 -1.136688e+03 -3.077548e+02  2.371740e+03 0.0 0.0 9.0
 2  1 1 2 103   0 -2.058732e+03  1.136688e+03  3.151818e+02  2.372715e+03 0.0022 0.0 9.0
#pdf 2 21 3.655294e-01 3.643868e-01 5000.0 1.754777e-01 1.766413e-01
</event>
<event>
4 7 1.0 5000.0 7.905138e-03 7.739137e-02
 2 -1 0 0 101   0  0.000000e+00  0.000000e+00  2.047475e+03  2.047475e+03 0.0 0.0 9.0
21 -1 0 0 103 101  0.000000e+00  0.000000e+00 -3.017844e+03  3.017844e+03 0.0 0.0 9.0
 2  1 1 2 103   0  8.558576e+02  1.878596e+03  9.256284e+02  2.262389e+03 0.0022 0.0 9.0
22  1 1 2   0   0 -8.558576e+02 -1.878596e+03 -1.895998e+03  2.802931e+03 0.0 0.0 9.0
#pdf 2 21 3.149962e-01 4.642838e-01 5000.0 2.311225e-01 9.233260e-02
</event>
<event>
4 7 1.0 5000.0 7.905138e-03 7.739137e-02
21 -1 0 0 103 101  0.000000e+00  0.000000e+00  2.996966e+03  2.996966e+03 0.0 0.0 9.0
 2 -1 0 0 101   0  0.000000e+00  0.000000e+00 -2.167596e+03  2.167596e+03 0.0 0.0 9.0
22  1 1 2   0   0 -5.568920e+02  6.930874e+02  2.834757e+03  2.970917e+03 0.0 0.0 9.0
 2  1 1 2 103   0  5.568920e+02 -6.930874e+02 -2.005388e+03  2.193645e+03 0.0022 0.0 9.0
#pdf 21 2 4.610716e-01 3.334763e-01 5000.0 4.767016e-03 2.390519e-02
</event>
<event>
4 7 1.0 5000.0 7.905138e-03 7.739137e-02
21 -1 0 0 103 101  0.000000e+00  0.000000e+00  2.707676e+03  2.707676e+03 0.0 0.0 9.0
 2 -1 0 0 101   0  0.000000e+00  0.000000e+00 -2.353056e+03  2.353056e+03 0.0 0.0 9.0
 2  1 1 2 103   0  1.689238e+03  1.382501e+03  1.447903e+03  2.619400e+03 0.0022 0.0 9.0
22  1 1 2   0   0 -1.689238e+03 -1.382501e+03 -1.093283e+03  2.441332e+03 0.0 0.0 9.0
#pdf 21 2 4.165656e-01 3.620087e-01 5000.0 8.493841e-03 1.682946e-02
</event>
<event>
4 7 1.0 5000.0 7.905138e-03 7.739137e-02
 2 -1 0 0 101   0  0.000000e+00  0.000000e+00  1.773329e+03  1.773329e+03 0.0 0.0 9.0
21 -1 0 0 103 101  0.000000e+00  0.000000e+00 -3.406409e+03  3.406409e+03 0.0 0.0 9.0
22  1 1 2   0   0  1.279426e+03 -2.694788e+02 -3.009525e+03  3.281278e+03 0.0 0.0 9.0
 2  1 1 2 103   0 -1.279426e+03  2.694788e+02  1.376445e+03  1.898460e+03 0.0022 0.0 9.0
#pdf 2 21 2.728199e-01 5.240629e-01 5000.0 2.835209e-01 5.796119e-02
</event>
<event>
4 7 1.0 5000.0 7.905138e-03 7.739137e-02
 2 -1 0 0 101   0  0.000000e+00  0.000000e+00  2.187122e+03  2.187122e+03 0.0 0.0 9.0
21 -1 0 0 103 101  0.000000e+00  0.000000e+00 -2.809024e+03  2.809024e+03 0.0 0.0 9.0
 2  1 1 2 103   0  2.942470e+02 -3.737211e+02  2.140693e+03  2.192901e+03 0.0022 0.0 9.0
22  1 1 2   0   0 -2.942470e+02  3.737211e+02 -2.762595e+03  2.803245e+03 0.0 0.0 9.0
#pdf 2 21 3.364803e-01 4.321575e-01 5000.0 2.064342e-01 1.156440e-01
</event>
<event>
4 7 1.0 5000.0 7.905138e-03 7.739137e-02
 2 -1 0 0 101   0  0.000000e+00  0.000000e+00  2.457612e+03  2.457612e+03 0.0 0.0 9.0
21 -1 0 0 103 101  0.000000e+00  0.000000e+00 -2.561725e+03  2.561725e+03 0.0 0.0 9.0
 2  1 1 2 103   0  7.952807e+01  2.089548e+03  1.335034e+03  2.480897e+03 0.0022 0.0 9.0
22  1 1 2   0   0 -7.952807e+01 -2.089548e+03 -1.439147e+03  2.538440e+03 0.0 0.0 9.0
#pdf 2 21 3.780942e-01 3.941116e-01 5000.0 1.630051e-01 1.479072e-01
</event>
<event>
4 7 1.0 5000.0 7.905138e-03 7.739137e-02
 2 -1 0 0 101   0  0.000000e+00  0.000000e+00  3.342526e+03  3.342526e+03 0.0 0.0 9.0
21 -1 0 0 103 101  0.000000e+00  0.000000e+00 -1.832782e+03  1.832782e+03 0.0 0.0 9.0
22  1 1 2   0   0  1.112748e+03  1.079919e+03 -1.262024e+03  1.999284e+03 0.0 0.0 9.0
 2  1 1 2 103   0 -1.112748e+03 -1.079919e+03  2.771768e+03  3.176024e+03 0.0022 0.0 9.0
#pdf 2 21 5.142348e-01 2.819665e-01 5000.0 6.285299e-02 2.717657e-01
</event>
<event>
4 7 1.0 5000.0 7.905138e-03 7.739137e-02
 2 -1 0 0 101   0  0.000000e+00  0.000000e+00  3.694657e+03  3.694657e+03 0.0 0.0 9.0
21 -1 0 0 103 101  0.000000e+00  0.000000e+00 -1.698821e+03  1.698821e+03 0.0 0.0 9.0
 2  1 1 2 103   0 -8.785964e+02  4.103529e+02  3.484459e+03  3.616874e+03 0.0022 0.0 9.0
22  1 1 2   0   0  8.785964e+02 -4.103529e+02 -1.488623e+03  1.776604e+03 0.0 0.0 9.0
#pdf 2 21 5.684088e-01 2.613571e-01 5000.0 3.920577e-02 2.985157e-01
</event>
<event>
4 7 1.0 5000.0 7.905138e-03 7.739137e-02
21 -1 0 0 103 101  0.000000e+00  0.000000e+00  1.985317e+03  1.985317e+03 0.0 0.0 9.0
 2 -1 0 0 101   0  0.000000e+00  0.000000e+00 -3.310741e+03  3.310741e+03 0.0 0.0 9.0
22  1 1 2   0   0 -1.563228e+03  1.862522e+03 -1.501947e+03  2.858061e+03 0.0 0.0 9.0
 2  1 1 2 103   0  1.563228e+03 -1.862522e+03  1.765228e+02  2.437997e+03 0.0022 0.0 9.0
#pdf 21 2 3.054334e-01 5.093448e-01 5000.0 3.373400e-02 2.475901e-03
</event>
<event>
4 7 1.0 5000.0 7.905138e-03 7.739137e-02
21 -1 0 0 103 101  0.000000e+00  0.000000e+00  2.089792e+03  2.089792e+03 0.0 0.0 9.0
 2 -1 0 0 101   0  0.000000e+00  0.000000e+00 -3.008295e+03  3.008295e+03 0.0 0.0 9.0
22  1 1 2   0   0  1.547770e+03 -6.736735e+02 -2.344086e+03  2.888627e+03 0.0 0.0 9.0
 2  1 1 2 103   0 -1.547770e+03  6.736735e+02  1.425583e+03  2.209460e+03 0.0022 0.0 9.0
#pdf 21 2 3.215065e-01 4.628147e-01 5000.0 2.767753e-02 4.658060e-03
</event>
<event>
4 7 1.0 5000.0 7.905138e-03 7.739137e-02
21 -1 0 0 103 101  0.000000e+00  0.000000e+00  1.647521e+03  1.647521e+03 0.0 0.0 9.0
 2 -1 0 0 101   0  0.000000e+00  0.000000e+00 -3.696188e+03  3.696188e+03 0.0 0.0 9.0
 2  1 1 2 103   0  2.229149e+03 -8.582516e+02 -3.535241e+02  2.414680e+03 0.0022 0.0 9.0
22  1 1 2   0   0 -2.229149e+03  8.582516e+02 -1.695143e+03  2.929029e+03 0.0 0.0 9.0
#pdf 21 2 2.534647e-01 5.686443e-01 5000.0 6.393195e-02 1.046468e-03
</event>
<event>
4 7 1.0 5000.0 7.905138e-03 7.739137e-02
 2 -1 0 0 101   0  0.000000e+00  0.000000e+00  1.635579e+03  1.635579e+03 0.0 0.0 9.0
21 -1 0 0 103 101  0.000000e+00  0.000000e+00 -3.845158e+03  3.845158e+03 0.0 0.0 9.0
22  1 1 2   0   0 -9.563614e+02  1.968462e+03 -2.442932e+03  3.279846e+03 0.0 0.0 9.0
 2  1 1 2 103   0  9.563614e+02 -1.968462e+03  2.333532e+02  2.200892e+03 0.0022 0.0 9.0
#pdf 2 21 2.516276e-01 5.915628e-01 5000.0 3.114162e-01 3.139716e-02
</event>
<event>
4 7 1.0 5000.0 7.905138e-03 7.739137e-02
21 -1 0 0 103 101  0.000000e+00  0.000000e+00  4.565907e+03  4.565907e+03 0.0 0.0 9.0
 2 -1 0 0 101   0  0.000000e+00  0.000000e+00 -1.381853e+03  1.381853e+03 0.0 0.0 9.0
22  1 1 2   0   0  2.130278e+03  7.453625e+02  2.897456e+03  3.672724e+03 0.0 0.0 9.0
 2  1 1 2 103   0 -2.130278e+03 -7.453625e+02  2.865973e+02  2.275036e+03 0.0022 0.0 9.0
#pdf 21 2 7.024472e-01 2.125928e-01 5000.0 1.029789e-04 1.069382e-01
</event>
<event>
4 7 1.0 5000.0 7.905138e-03 7.739137e-02
21 -1 0 0 103 101  0.000000e+00  0.000000e+00  2.747305e+03  2.747305e+03 0.0 0.0 9.0
 2 -1 0 0 101   0  0.000000e+00  0.000000e+00 -2.235847e+03  2.235847e+03 0.0 0.0 9.0
22  1 1 2   0   0 -1.272663e+03  1.690180e+03 -1.041928e+03  2.358388e+03 0.0 0.0 9.0
 2  1 1 2 103   0  1.272663e+03 -1.690180e+03  1.553386e+03  2.624764e+03 0.0022 0.0 9.0
#pdf 21 2 4.226623e-01 3.439765e-01 5000.0 7.858391e-03 2.101564e-02
</event>
<event>
4 7 1.0 5000.0 7.905138e-03 7.739137e-02
 2 -1 0 0 101   0  0.000000e+00  0.000000e+00  2.270651e+03  2.270651e+03 0.0 0.0 9.0
21 -1 0 0 103 101  0.000000e+00  0.000000e+00 -2.687325e+03  2.687325e+03 0.0 0.0 9.0
22  1 1 2   0   0 -1.563542e+02 -1.781653e+03  1.501603e+03  2.335283e+03 0.0 0.0 9.0
 2  1 1 2 103   0  1.563542e+02  1.781653e+03 -1.918277e+03  2.622694e+03 0.0022 0.0 9.0
#pdf 2 21 3.493309e-01 4.134347e-01 5000.0 1.923848e-01 1.308767e-01
</event>
<event>
4 7 1.0 5000.0 7.905138e-03 7.739137e-02
21 -1 0 0 103 101  0.000000e+00  0.000000e+00  2.902416e+03  2.902416e+03 0.0 0.0 9.0
 2 -1 0 0 101   0  0.000000e+00  0.000000e+00 -2.152902e+03  2.152902e+03 0.0 0.0 9.0
 2  1 1 2 103   0 -2.308473e+03 -5.670764e+02 -4.071880e+02  2.411726e+03 0.0022 0.0 9.0
22  1 1 2   0   0  2.308473e+03  5.670764e+02  1.156702e+03  2.643592e+03 0.0 0.0 9.0
#pdf 21 2 4.465256e-01 3.312157e-01 5000.0 5.769400e-03 2.457749e-02
</event>
<event>
4 7 1.0 5000.0 7.905138e-03 7.739137e-02
21 -1 0 0 103 101  0.000000e+00  0.000000e+00  1.974811e+03  1.974811e+03 0.0 0.0 9.0
 2 -1 0 0 101   0  0.000000e+00  0.000000e+00 -3.239162e+03  3.239162e+03 0.0 0.0 9.0
22  1 1 2   0   0 -2.145020e+03  1.424259e+02 -2.005585e+03  2.940028e+03 0.0 0.0 9.0
 2  1 1 2 103   0  2.145020e+03 -1.424259e+02  7.412343e+02  2.273945e+03 0.0022 0.0 9.0
#pdf 21 2 3.038172e-01 4.983326e-01 5000.0 3.440085e-02 2.884167e-03
</event>
<event>
4 7 1.0 5000.0 7.905138e-03 7.739137e-02
21 -1 0 0 103 101  0.000000e+00  0.000000e+00  4.487228e+03  4.487228e+03 0.0 0.0 9.0
 2 -1 0 0 101   0  0.000000e+00  0.000000e+00 -1.374577e+03  1.374577e+03 0.0 0.0 9.0
22  1 1 2   0   0 -1.769401e+03 -1.727936e+03  1.824130e+03  3.073108e+03 0.0 0.0 9.0
 2  1 1 2 103   0  1.769401e+03  1.727936e+03  1.288521e+03  2.788697e+03 0.0022 0.0 9.0
#pdf 21 2 6.903427e-01 2.114733e-01 5000.0 1.311142e-04 1.084714e-01
</event>
<event>
4 7 1.0 5000.0 7.905138e-03 7.739137e-02
 2 -1 0 0 101   0  0.000000e+00  0.000000e+00  3.343993e+03  3.343993e+03 0.0 0.0 9.0
21 -1 0 0 103 101  0.000000e+00  0.000000e+00 -1.841193e+03  1.841193e+03 0.0 0.0 9.0
 2  1 1 2 103   0 -3.296670e+02  2.289284e+03 -1.874699e+02  2.320485e+03 0.0022 0.0 9.0
22  1 1 2   0   0  3.296670e+02 -2.289284e+03  1.690270e+03  2.864702e+03 0.0 0.0 9.0
#pdf 2 21 5.144605e-01 2.832605e-01 5000.0 6.273736e-02 2.701200e-01
</event>
<event>
4 7 1.0 5000.0 7.905138e-03 7.739137e-02
21 -1 0 0 103 101  0.000000e+00  0.000000e+00  2.240025e+03  2.240025e+03 0.0 0.0 9.0
 2 -1 0 0 101   0  0.000000e+00  0.000000e+00 -2.781257e+03  2.781257e+03 0.0 0.0 9.0
 2  1 1 2 103   0  1.363073e+02 -1.901424e+03  1.350065e+03  2.335952e+03 0.0022 0.0 9.0
22  1 1 2   0   0 -1.363073e+02  1.901424e+03 -1.891297e+03  2.685330e+03 0.0 0.0 9.0
#pdf 21 2 3.446192e-01 4.278856e-01 5000.0 2.085117e-02 7.347761e-03
</event>
<event>
4 7 1.0 5000.0 7.905138e-03 7.739137e-02
 2 -1 0 0 101   0  0.000000e+00  0.000000e+00  2.702228e+03  2.702228e+03 0.0 0.0 9.0
21 -1 0 0 103 101  0.000000e+00  0.000000e+00 -2.249818e+03  2.249818e+03 0.0 0.0 9.0
22  1 1 2   0   0 -4.081099e+02 -1.044474e+03 -1.978932e+03  2.274566e+03 0.0 0.0 9.0
 2  1 1 2 103   0  4.081099e+02  1.044474e+03  2.431341e+03  2.677480e+03 0.0022 0.0 9.0
#pdf 2 21 4.157273e-01 3.461259e-01 5000.0 1.289435e-01 1.958384e-01
</event>
<event>
4 7 1.0 5000.0 7.905138e-03 7.739137e-02
 2 -1 0 0 101   0  0.000000e+00  0.000000e+00  1.435521e+03  1.435521e+03 0.0 0.0 9.0
21 -1 0 0 103 101  0.000000e+00  0.000000e+00 -4.433921e+03  4.433921e+03 0.0 0.0 9.0
 2  1 1 2 103   0 -1.083907e+03 -9.505870e+02  9.091542e+02  1.704415e+03 0.0022 0.0 9.0
22  1 1 2   0   0  1.083907e+03  9.505870e+02 -3.907554e+03  4.165027e+03 0.0 0.0 9.0
#pdf 2 21 2.208494e-01 6.821417e-01 5000.0 3.532483e-01 1.133751e-02
</event>
<event>
4 7 1.0 5000.0 7.905138e-03 7.739137e-02
 2 -1 0 0 101   0  0.000000e+00  0.000000e+00  3.255526e+03  3.255526e+03 0.0 0.0 9.0
21 -1 0 0 103 101  0.000000e+00  0.000000e+00 -1.939728e+03  1.939728e+03 0.0 0.0 9.0
 2  1 1 2 103   0 -1.875496e+03 -1.635671e+03  2.969390e+02  2.506207e+03 0.0022 0.0 9.0
22  1 1 2   0   0  1.875496e+03  1.635671e+03  1.018859e+03  2.689047e+03 0.0 0.0 9.0
#pdf 2 21 5.008502e-01 2.984198e-01 5000.0 6.998321e-02 2.511354e-01
</event>
<event>
4 7 1.0 5000.0 7.905138e-03 7.739137e-02
21 -1 0 0 103 101  0.000000e+00  0.000000e+00  2.075734e+03  2.075734e+03 0.0 0.0 9.0
 2 -1 0 0 101   0  0.000000e+00  0.000000e+00 -2.685431e+03  2.685431e+03 0.0 0.0 9.0
 2  1 1 2 103   0  1.560210e+03 -9.323093e+02  1.214574e+03  2.186011e+03 0.0022 0.0 9.0
22  1 1 2   0   0 -1.560210e+03  9.323093e+02 -1.824271e+03  2.575154e+03 0.0 0.0 9.0
#pdf 21 2 3.193438e-01 4.131432e-01 5000.0 2.842055e-02 8.871729e-03
</event>
<event>
4 7 1.0 5000.0 7.905138e-03 7.739137e-02
 2 -1 0 0 101   0  0.000000e+00  0.000000e+00  3.378538e+03  3.378538e+03 0.0 0.0 9.0
21 -1 0 0 103 101  0.000000e+00  0.000000e+00 -1.829753e+03  1.829753e+03 0.0 0.0 9.0
 2  1 1 2 103   0  9.447018e+02 -2.299498e+03  8.180425e+02  2.617126e+03 0.0022 0.0 9.0
22  1 1 2   0   0 -9.447018e+02  2.299498e+03  7.307420e+02  2.591165e+03 0.0 0.0 9.0
#pdf 2 21 5.197750e-01 2.815005e-01 5000.0 6.005901e-02 2.723588e-01
</event>
<event>
4 7 1.0 5000.0 7.905138e-03 7.739137e-02
 2 -1 0 0 101   0  0.000000e+00  0.000000e+00  1.794836e+03  1.794836e+03 0.0 0.0 9.0
21 -1 0 0 103 101  0.000000e+00  0.000000e+00 -3.483270e+03  3.483270e+03 0.0 0.0 9.0
22  1 1 2   0   0  1.757231e+03 -3.613694e+02 -2.682492e+03  3.227106e+03 0.0 0.0 9.0
 2  1 1 2 103   0 -1.757231e+03  3.613694e+02  9.940582e+02  2.051000e+03 0.0022 0.0 9.0
#pdf 2 21 2.761286e-01 5.358877e-01 5000.0 2.792423e-01 5.243430e-02
</event>
<event>
4 7 1.0 5000.0 7.905138e-03 7.739137e-02
 2 -1 0 0 101   0  0.000000e+00  0.000000e+00  2.402096e+03  2.402096e+03 0.0 0.0 9.0
21 -1 0 0 103 101  0.000000e+00  0.000000e+00 -2.670585e+03  2.670585e+03 0.0 0.0 9.0
22  1 1 2   0   0 -1.959499e+03  1.376588e+03 -9.602477e+02  2.580059e+03 0.0 0.0 9.0
 2  1 1 2 103   0  1.959499e+03 -1.376588e+03  6.917587e+02  2.492621e+03 0.0022 0.0 9.0
#pdf 2 21 3.695532e-01 4.108592e-01 5000.0 1.714142e-01 1.330697e-01
</event>
<event>
4 7 1.0 5000.0 7.905138e-03 7.739137e-02
 2 -1 0 0 101   0  0.000000e+00  0.000000e+00  1.241621e+03  1.241621e+03 0.0 0.0 9.0
21 -1 0 0 103 101  0.000000e+00  0.000000e+00 -5.070332e+03  5.070332e+03 0.0 0.0 9.0
 2  1 1 2 103   0  1.889309e+03  1.361318e+03 -7.392765e+02  2.443196e+03 0.0022 0.0 9.0
22  1 1 2   0   0 -1.889309e+03 -1.361318e+03 -3.089434e+03  3.868757e+03 0.0 0.0 9.0
#pdf 2 21 1.910186e-01 7.800511e-01 5000.0 3.944233e-01 2.509349e-03
</event>
<event>
4 7 1.0 5000.0 7.905138e-03 7.739137e-02
21 -1 0 0 103 101  0.000000e+00  0.000000e+00  2.324204e+03  2.324204e+03 0.0 0.0 9.0
 2 -1 0 0 101   0  0.000000e+00  0.000000e+00 -2.353957e+03  2.353957e+03 0.0 0.0 9.0
 2  1 1 2 103   0  6.142155e+02  1.729273e+03  1.435473e+03  2.329856e+03 0.0022 0.0 9.0
22  1 1 2   0   0 -6.142155e+02 -1.729273e+03 -1.465226e+03  2.348305e+03 0.0 0.0 9.0
#pdf 21 2 3.575698e-01 3.621472e-01 5000.0 1.777032e-02 1.680090e-02
</event>
<event>
4 7 1.0 5000.0 7.905138e-03 7.739137e-02
 2 -1 0 0 101   0  0.000000e+00  0.000000e+00  2.643332e+03  2.643332e+03 0.0 0.0 9.0
21 -1 0 0 103 101  0.000000e+00  0.000000e+00 -2.409259e+03  2.409259e+03 0.0 0.0 9.0
22  1 1 2   0   0  2.303695e+03 -1.016531e+03 -5.085779e+01  2.518518e+03 0.0 0.0 9.0
 2  1 1 2 103   0 -2.303695e+03  1.016531e+03  2.849301e+02  2.534074e+03 0.0022 0.0 9.0
#pdf 2 21 4.066664e-01 3.706553e-01 5000.0 1.366883e-01 1.703119e-01
</event>
<event>
4 7 1.0 5000.0 7.905138e-03 7.739137e-02
21 -1 0 0 103 101  0.000000e+00  0.000000e+00  1.944127e+03  1.944127e+03 0.0 0.0 9.0
 2 -1 0 0 101   0  0.000000e+00  0.000000e+00 -3.198487e+03  3.198487e+03 0.0 0.0 9.0
22  1 1 2   0   0  2.207565e+03  4.685007e+02  4.667203e+02  2.304488e+03 0.0 0.0 9.0
 2  1 1 2 103   0 -2.207565e+03 -4.685007e+02 -1.721081e+03  2.838126e+03 0.0022 0.0 9.0
#pdf 21 2 2.990964e-01 4.920750e-01 5000.0 3.642581e-02 3.142446e-03
</event>
<event>
4 7 1.0 5000.0 7.905138e-03 7.739137e-02
21 -1 0 0 103 101  0.000000e+00  0.000000e+00  3.203750e+03  3.203750e+03 0.0 0.0 9.0
 2 -1 0 0 101   0  0.000000e+00  0.000000e+00 -1.962699e+03  1.962699e+03 0.0 0.0 9.0
 2  1 1 2 103   0 -2.477972e+03  2.031951e+01  1.015819e+03  2.678179e+03 0.0022 0.0 9.0
22  1 1 2   0   0  2.477972e+03 -2.031951e+01  2.252324e+02  2.488270e+03 0.0 0.0 9.0
#pdf 21 2 4.928847e-01 3.019536e-01 5000.0 3.107948e-03 3.517811e-02
</event>
<event>
4 7 1.0 5000.0 7.905138e-03 7.739137e-02
 2 -1 0 0 101   0  0.000000e+00  0.000000e+00  3.593194e+03  3.593194e+03 0.0 0.0 9.0
21 -1 0 0 103 101  0.000000e+00  0.000000e+00 -1.726734e+03  1.726734e+03 0.0 0.0 9.0
22  1 1 2   0   0 -7.591393e+02 -8.925048e+02  3.280536e+03  3.483500e+03 0.0 0.0 9.0
 2  1 1 2 103   0  7.591393e+02  8.925048e+02 -1.414075e+03  1.836428e+03 0.0022 0.0 9.0
#pdf 2 21 5.527991e-01 2.656513e-01 5000.0 4.520141e-02 2.928731e-01
</event>
<event>
4 7 1.0 5000.0 7.905138e-03 7.739137e-02
21 -1 0 0 103 101  0.000000e+00  0.000000e+00  2.727704e+03  2.727704e+03 0.0 0.0 9.0
 2 -1 0 0 101   0  0.000000e+00  0.000000e+00 -2.329800e+03  2.329800e+03 0.0 0.0 9.0
22  1 1 2   0   0  1.508460e+03  9.848654e+02  1.967838e+03  2.667921e+03 0.0 0.0 9.0
 2  1 1 2 103   0 -1.508460e+03 -9.848654e+02 -1.569934e+03  2.389583e+03 0.0022 0.0 9.0
#pdf 21 2 4.196467e-01 3.584307e-01 5000.0 8.167009e-03 1.758334e-02
</event>
<event>
4 7 1.0 5000.0 7.905138e-03 7.739137e-02
21 -1 0 0 103 101  0.000000e+00  0.000000e+00  2.092054e+03  2.092054e+03 0.0 0.0 9.0
 2 -1 0 0 101   0  0.000000e+00  0.000000e+00 -2.829447e+03  2.829447e+03 0.0 0.0 9.0
 2  1 1 2 103   0 -2.290608e+03 -4.415399e+02  3.302143e+02  2.356032e+03 0.0022 0.0 9.0
22  1 1 2   0   0  2.290608e+03  4.415399e+02 -1.067608e+03  2.565469e+03 0.0 0.0 9.0
#pdf 21 2 3.218544e-01 4.352995e-01 5000.0 2.755992e-02 6.682976e-03
</event>
<event>
4 7 1.0 5000.0 7.905138e-03 7.739137e-02
21 -1 0 0 103 101  0.000000e+00  0.000000e+00  2.987827e+03  2.987827e+03 0.0 0.0 9.0
 2 -1 0 0 101   0  0.000000e+00  0.000000e+00 -2.353970e+03  2.353970e+03 0.0 0.0 9.0
22  1 1 2   0   0 -2.122763e+03 -4.281056e+02 -1.224931e+03  2.487942e+03 0.0 0.0 9.0
 2  1 1 2 103   0  2.122763e+03  4.281056e+02  1.858788e+03  2.853856e+03 0.0022 0.0 9.0
#pdf 21 2 4.596657e-01 3.621492e-01 5000.0 4.857096e-03 1.680049e-02
</event>
<event>
4 7 1.0 5000.0 7.905138e-03 7.739137e-02
 2 -1 0 0 101   0  0.000000e+00  0.000000e+00  4.789339e+03  4.789339e+03 0.0 0.0 9.0
21 -1 0 0 103 101  0.000000e+00  0.000000e+00 -1.259387e+03  1.259387e+03 0.0 0.0 9.0
22  1 1 2   0   0  2.200181e+03 -1.090658e+03  1.720614e+03  2.998474e+03 0.0 0.0 9.0
 2  1 1 2 103   0 -2.200181e+03  1.090658e+03  1.809338e+03  3.050252e+03 0.0022 0.0 9.0
#pdf 2 21 7.368213e-01 1.937518e-01 5000.0 5.237213e-03 3.906759e-01
</event>
<event>
4 7 1.0 5000.0 7.905138e-03 7.739137e-02
21 -1 0 0 103 101  0.000000e+00  0.000000e+00  1.920259e+03  1.920259e+03 0.0 0.0 9.0
 2 -1 0 0 101   0  0.000000e+00  0.000000e+00 -3.350850e+03  3.350850e+03 0.0 0.0 9.0
 2  1 1 2 103   0 -1.970731e+03  1.568901e+03 -4.048631e+02  2.551302e+03 0.0022 0.0 9.0
22  1 1 2   0   0  1.970731e+03 -1.568901e+03 -1.025728e+03  2.719807e+03 0.0 0.0 9.0
#pdf 21 2 2.954245e-01 5.155154e-01 5000.0 3.813333e-02 2.271263e-03
</event>
<event>
4 7 1.0 5000.0 7.905138e-03 7.739137e-02
21 -1 0 0 103 101  0.000000e+00  0.000000e+00  3.183840e+03  3.183840e+03 0.0 0.0 9.0
 2 -1 0 0 101   0  0.000000e+00  0.000000e+00 -1.954669e+03  1.954669e+03 0.0 0.0 9.0
 2  1 1 2 103   0  1.113781e+03  7.676054e+02 -1.544185e+03  2.052860e+03 0.0022 0.0 9.0
22  1 1 2   0   0 -1.113781e+03 -7.676054e+02  2.773356e+03  3.085649e+03 0.0 0.0 9.0
#pdf 21 2 4.898215e-01 3.007183e-01 5000.0 3.240291e-03 3.569762e-02
</event>
<event>
4 7 1.0 5000.0 7.905138e-03 7.739137e-02
21 -1 0 0 103 101  0.000000e+00  0.000000e+00  3.663238e+03  3.663238e+03 0.0 0.0 9.0
 2 -1 0 0 101   0  0.000000e+00  0.000000e+00 -1.674375e+03  1.674375e+03 0.0 0.0 9.0
 2  1 1 2 103   0  6.727579e+02  2.566201e+02  3.547955e+03  3.620282e+03 0.0022 0.0 9.0
22  1 1 2   0   0 -6.727579e+02 -2.566201e+02 -1.559092e+03  1.717331e+03 0.0 0.0 9.0
#pdf 21 2 5.635750e-01 2.575961e-01 5000.0 1.130793e-03 6.071012e-02
</event>
<event>
4 7 1.0 5000.0 7.905138e-03 7.739137e-02
21 -1 0 0 103 101  0.000000e+00  0.000000e+00  1.759917e+03  1.759917e+03 0.0 0.0 9.0
 2 -1 0 0 101   0  0.000000e+00  0.000000e+00 -3.317498e+03  3.317498e+03 0.0 0.0 9.0
22  1 1 2   0   0 -1.792250e+03 -2.347571e+02  9.059517e+02  2.021885e+03 0.0 0.0 9.0
 2  1 1 2 103   0  1.792250e+03  2.347571e+02 -2.463533e+03  3.055530e+03 0.0022 0.0 9.0
#pdf 21 2 2.707564e-01 5.103844e-01 5000.0 5.156354e-02 2.440349e-03
</event>
<event>
4 7 1.0 5000.0 7.905138e-03 7.739137e-02
 2 -1 0 0 101   0  0.000000e+00  0.000000e+00  4.518823e+03  4.518823e+03 0.0 0.0 9.0
21 -1 0 0 103 101  0.000000e+00  0.000000e+00 -1.360782e+03  1.360782e+03 0.0 0.0 9.0
22  1 1 2   0   0 -1.906916e+03 -4.018889e+02 -2.388549e+02  1.963389e+03 0.0 0.0 9.0
 2  1 1 2 103   0  1.906916e+03  4.018889e+02  3.396896e+03  3.916216e+03 0.0022 0.0 9.0
#pdf 2 21 6.952035e-01 2.093510e-01 5000.0 9.552532e-03 3.691126e-01
</event>
<event>
4 7 1.0 5000.0 7.905138e-03 7.739137e-02
 2 -1 0 0 101   0  0.000000e+00  0.000000e+00  1.604071e+03  1.604071e+03 0.0 0.0 9.0
21 -1 0 0 103 101  0.000000e+00  0.000000e+00 -3.918616e+03  3.918616e+03 0.0 0.0 9.0
22  1 1 2   0   0  2.881829e+02  2.323873e+03 -2.143805e+03  3.174796e+03 0.0 0.0 9.0
 2  1 1 2 103   0 -2.881829e+02 -2.323873e+03 -1.707402e+02  2.347890e+03 0.0022 0.0 9.0
#pdf 2 21 2.467801e-01 6.028639e-01 5000.0 3.179514e-01 2.803830e-02
</event>
<event>
4 7 1.0 5000.0 7.905138e-03 7.739137e-02
 2 -1 0 0 101   0  0.000000e+00  0.000000e+00  1.667908e+03  1.667908e+03 0.0 0.0 9.0
21 -1 0 0 103 101  0.000000e+00  0.000000e+00 -3.612991e+03  3.612991e+03 0.0 0.0 9.0
 2  1 1 2 103   0 -2.332419e+03  1.295203e+02 -1.784034e+03  2.939342e+03 0.0022 0.0 9.0
22  1 1 2   0   0  2.332419e+03 -1.295203e+02 -1.610490e+02  2.341558e+03 0.0 0.0 9.0
#pdf 2 21 2.566013e-01 5.558448e-01 5000.0 3.047944e-01 4.399464e-02
</event>
<event>
4 7 1.0 5000.0 7.905138e-03 7.739137e-02
 2 -1 0 0 101   0  0.000000e+00  0.000000e+00  2.256744e+03  2.256744e+03 0.0 0.0 9.0
21 -1 0 0 103 101  0.000000e+00  0.000000e+00 -2.758908e+03  2.758908e+03 0.0 0.0 9.0
 2  1 1 2 103   0  2.175298e+03 -1.154935e+03 -6.535487e+02  2.548121e+03 0.0022 0.0 9.0
22  1 1 2   0   0 -2.175298e+03  1.154935e+03  1.513850e+02  2.467532e+03 0.0 0.0 9.0
#pdf 2 21 3.471914e-01 4.244474e-01 5000.0 1.946863e-01 1.217602e-01
</event>
<event>
4 7 1.0 5000.0 7.905138e-03 7.739137e-02
 2 -1 0 0 101   0  0.000000e+00  0.000000e+00  2.966674e+03  2.966674e+03 0.0 0.0 9.0
21 -1 0 0 103 101  0.000000e+00  0.000000e+00 -2.114721e+03  2.114721e+03 0.0 0.0 9.0
22  1 1 2   0   0 -3.599905e+02 -1.166394e+03  2.644529e+03  2.912663e+03 0.0 0.0 9.0
 2  1 1 2 103   0  3.599905e+02  1.166394e+03 -1.792577e+03  2.168732e+03 0.0022 0.0 9.0
#pdf 2 21 4.564113e-01 3.253417e-01 5000.0 9.772021e-02 2.190542e-01
</event>
<event>
4 7 1.0 5000.0 7.905138e-03 7.739137e-02
 2 -1 0 0 101   0  0.000000e+00  0.000000e+00  1.558738e+03  1.558738e+03 0.0 0.0 9.0
21 -1 0 0 103 101  0.000000e+00  0.000000e+00 -3.970553e+03  3.970553e+03 0.0 0.0 9.0
 2  1 1 2 103   0 -6.641128e+02  1.135047e+02  1.455422e+03  1.603803e+03 0.0022 0.0 9.0
22  1 1 2   0   0  6.641128e+02 -1.135047e+02 -3.867237e+03  3.925488e+03 0.0 0.0 9.0
#pdf 2 21 2.398058e-01 6.108543e-01 5000.0 3.273303e-01 2.582632e-02
</event>
<event>
4 7 1.0 5000.0 7.905138e-03 7.739137e-02
 2 -1 0 0 101   0  0.000000e+00  0.000000e+00  1.487332e+03  1.487332e+03 0.0 0.0 9.0
21 -1 0 0 103 101  0.000000e+00  0.000000e+00 -3.618183e+03  3.618183e+03 0.0 0.0 9.0
22  1 1 2   0   0  1.198617e+03  1.825602e+03 -2.046041e+02  2.193483e+03 0.0 0.0 9.0
 2  1 1 2 103   0 -1.198617e+03 -1.825602e+03 -1.926247e+03  2.912033e+03 0.0022 0.0 9.0
#pdf 2 21 2.288203e-01 5.566436e-01 5000.0 3.423457e-01 4.368115e-02
</event>
<event>
4 7 1.0 5000.0 7.905138e-03 7.739137e-02
 2 -1 0 0 101   0  0.000000e+00  0.000000e+00  4.213368e+03  4.213368e+03 0.0 0.0 9.0
21 -1 0 0 103 101  0.000000e+00  0.000000e+00 -1.420692e+03  1.420692e+03 0.0 0.0 9.0
22  1 1 2   0   0  7.208716e+02 -1.200857e+03 -9.134156e+02  1.672137e+03 0.0 0.0 9.0
 2  1 1 2 103   0 -7.208716e+02  1.200857e+03  3.706091e+03  3.961922e+03 0.0022 0.0 9.0
#pdf 2 21 6.482104e-01 2.185680e-01 5000.0 1.714368e-02 3.563762e-01
</event>
<event>
4 7 1.0 5000.0 7.905138e-03 7.739137e-02
21 -1 0 0 103 101  0.000000e+00  0.000000e+00  1.948460e+03  1.948460e+03 0.0 0.0 9.0
 2 -1 0 0 101   0  0.000000e+00  0.000000e+00 -3.147574e+03  3.147574e+03 0.0 0.0 9.0
22  1 1 2   0   0  7.312150e+02  1.963189e+03  7.592531e+02  2.228284e+03 0.0 0.0 9.0
 2  1 1 2 103   0 -7.312150e+02 -1.963189e+03 -1.958368e+03  2.867750e+03 0.0022 0.0 9.0
#pdf 21 2 2.997630e-01 4.842422e-01 5000.0 3.611874e-02 3.495203e-03
</event>
<event>
4 7 1.0 5000.0 7.905138e-03 7.739137e-02
 2 -1 0 0 101   0  0.000000e+00  0.000000e+00  3.221229e+03  3.221229e+03 0.0 0.0 9.0
21 -1 0 0 103 101  0.000000e+00  0.000000e+00 -1.987203e+03  1.987203e+03 0.0 0.0 9.0
 2  1 1 2 103   0 -1.004011e+03  8.521058e+01  3.005791e+03  3.170186e+03 0.0022 0.0 9.0
22  1 1 2   0   0  1.004011e+03 -8.521058e+01 -1.771764e+03  2.038246e+03 0.0 0.0 9.0
#pdf 2 21 4.955737e-01 3.057235e-01 5000.0 7.294446e-02 2.422143e-01
</event>
<event>
4 7 1.0 5000.0 7.905138e-03 7.739137e-02
 2 -1 0 0 101   0  0.000000e+00  0.000000e+00  3.210608e+03  3.210608e+03 0.0 0.0 9.0
21 -1 0 0 103 101  0.000000e+00  0.000000e+00 -1.966603e+03  1.966603e+03 0.0 0.0 9.0
 2  1 1 2 103   0  1.844280e+03 -1.450046e+03  1.549161e+03  2.811388e+03 0.0022 0.0 9.0
22  1 1 2   0   0 -1.844280e+03  1.450046e+03 -3.051566e+02  2.365824e+03 0.0 0.0 9.0
#pdf 2 21 4.939397e-01 3.025544e-01 5000.0 7.387928e-02 2.460707e-01
</event>
<event>
4 7 1.0 5000.0 7.905138e-03 7.739137e-02
 2 -1 0 0 101   0  0.000000e+00  0.000000e+00  3.349991e+03  3.349991e+03 0.0 0.0 9.0
21 -1 0 0 103 101  0.000000e+00  0.000000e+00 -1.857988e+03  1.857988e+03 0.0 0.0 9.0
 2  1 1 2 103   0 -6.268890e+02  1.138096e+03  2.968963e+03  3.240833e+03 0.0022 0.0 9.0
22  1 1 2   0   0  6.268890e+02 -1.138096e+03 -1.476961e+03  1.967146e+03 0.0 0.0 9.0
#pdf 2 21 5.153832e-01 2.858443e-01 5000.0 6.226627e-02 2.668415e-01
</event>
<event>
4 7 1.0 5000.0 7.905138e-03 7.739137e-02
21 -1 0 0 103 101  0.000000e+00  0.000000e+00  1.073033e+03  1.073033e+03 0.0 0.0 9.0
 2 -1 0 0 101   0  0.000000e+00  0.000000e+00 -4.539104e+03  4.539104e+03 0.0 0.0 9.0
22  1 1 2   0   0  1.240618e+00 -9.204613e+02 -4.283393e+03  4.381176e+03 0.0 0.0 9.0
 2  1 1 2 103   0 -1.240618e+00  9.204613e+02  8.173214e+02  1.230961e+03 0.0022 0.0 9.0
#pdf 21 2 1.650820e-01 6.983238e-01 5000.0 2.009015e-01 1.119195e-04
</event>
<event>
4 7 1.0 5000.0 7.905138e-03 7.739137e-02
21 -1 0 0 103 101  0.000000e+00  0.000000e+00  2.298027e+03  2.298027e+03 0.0 0.0 9.0
 2 -1 0 0 101   0  0.000000e+00  0.000000e+00 -2.732632e+03  2.732632e+03 0.0 0.0 9.0
22  1 1 2   0   0 -5.320834e+02  2.310336e+03  5.974706e+02  2.444941e+03 0.0 0.0 9.0
 2  1 1 2 103   0  5.320834e+02 -2.310336e+03 -1.032075e+03  2.585719e+03 0.0022 0.0 9.0
#pdf 21 2 3.535427e-01 4.204049e-01 5000.0 1.868129e-02 8.088404e-03
</event>
<event>
4 7 1.0 5000.0 7.905138e-03 7.739137e-02
21 -1 0 0 103 101  0.000000e+00  0.000000e+00  2.565732e+03  2.565732e+03 0.0 0.0 9.0
 2 -1 0 0 101   0  0.000000e+00  0.000000e+00 -2.479139e+03  2.479139e+03 0.0 0.0 9.0
 2  1 1 2 103   0  3.336358e+02 -1.651141e+03  1.920599e+03  2.554659e+03 0.0022 0.0 9.0
22  1 1 2   0   0 -3.336358e+02  1.651141e+03 -1.834005e+03  2.490212e+03 0.0 0.0 9.0
#pdf 21 2 3.947280e-01 3.814059e-01 5000.0 1.119757e-02 1.324123e-02
</event>
<event>
4 7 1.0 5000.0 7.905138e-03 7.739137e-02
21 -1 0 0 103 101  0.000000e+00  0.000000e+00  1.460726e+03  1.460726e+03 0.0 0.0 9.0
 2 -1 0 0 101   0  0.000000e+00  0.000000e+00 -3.898142e+03  3.898142e+03 0.0 0.0 9.0
22  1 1 2   0   0 -6.073095e+02 -2.047177e+03 -2.414635e+03  3.223387e+03 0.0 0.0 9.0
 2  1 1 2 103   0  6.073095e+02  2.047177e+03 -2.278147e+01  2.135481e+03 0.0022 0.0 9.0
#pdf 21 2 2.247270e-01 5.997142e-01 5000.0 9.156494e-02 6.447963e-04
</event>
<event>
4 7 1.0 5000.0 7.905138e-03 7.739137e-02
 2 -1 0 0 101   0  0.000000e+00  0.000000e+00  2.324438e+03  2.324438e+03 0.0 0.0 9.0
21 -1 0 0 103 101  0.000000e+00  0.000000e+00 -2.693494e+03  2.693494e+03 0.0 0.0 9.0
 2  1 1 2 103   0 -2.053032e+03  8.321936e+02 -1.351032e+03  2.594759e+03 0.0022 0.0 9.0
22  1 1 2   0   0  2.053032e+03 -8.321936e+02  9.819759e+02  2.423172e+03 0.0 0.0 9.0
#pdf 2 21 3.576058e-01 4.143836e-01 5000.0 1.836357e-01 1.300743e-01
</event>
<event>
4 7 1.0 5000.0 7.905138e-03 7.739137e-02
 2 -1 0 0 101   0  0.000000e+00  0.000000e+00  2.870351e+03  2.870351e+03 0.0 0.0 9.0
21 -1 0 0 103 101  0.000000e+00  0.000000e+00 -2.108644e+03  2.108644e+03 0.0 0.0 9.0
 2  1 1 2 103   0 -1.881524e+03  9.748393e+02  1.645583e+03  2.682981e+03 0.0022 0.0 9.0
22  1 1 2   0   0  1.881524e+03 -9.748393e+02 -8.838762e+02  2.296014e+03 0.0 0.0 9.0
#pdf 2 21 4.415924e-01 3.244068e-01 5000.0 1.084375e-01 2.201322e-01
</event>
<event>
4 7 1.0 5000.0 7.905138e-03 7.739137e-02
21 -1 0 0 103 101  0.000000e+00  0.000000e+00  3.159218e+03  3.159218e+03 0.0 0.0 9.0
 2 -1 0 0 101   0  0.000000e+00  0.000000e+00 -1.953015e+03  1.953015e+03 0.0 0.0 9.0
22  1 1 2   0   0 -8.741822e+02  2.588005e+02  2.980823e+03  3.117126e+03 0.0 0.0 9.0
 2  1 1 2 103   0  8.741822e+02 -2.588005e+02 -1.774620e+03  1.995106e+03 0.0022 0.0 9.0
#pdf 21 2 4.860335e-01 3.004638e-01 5000.0 3.411286e-03 3.580640e-02
</event>
<event>
4 7 1.0 5000.0 7.905138e-03 7.739137e-02
 2 -1 0 0 101   0  0.000000e+00  0.000000e+00  1.420618e+03  1.420618e+03 0.0 0.0 9.0
21 -1 0 0 103 101  0.000000e+00  0.000000e+00 -3.154482e+03  3.154482e+03 0.0 0.0 9.0
22  1 1 2   0   0  1.506403e+03 -1.368122e+03 -1.497311e+03  2.526450e+03 0.0 0.0 9.0
 2  1 1 2 103   0 -1.506403e+03  1.368122e+03 -2.365529e+02  2.048650e+03 0.0022 0.0 9.0
#pdf 2 21 2.185566e-01 4.853048e-01 5000.0 3.563919e-01 7.895931e-02
</event>
<event>
4 7 1.0 5000.0 7.905138e-03 7.739137e-02
21 -1 0 0 103 101  0.000000e+00  0.000000e+00  1.779739e+03  1.779739e+03 0.0 0.0 9.0
 2 -1 0 0 101   0  0.000000e+00  0.000000e+00 -3.279692e+03  3.279692e+03 0.0 0.0 9.0
 2  1 1 2 103   0 -2.079952e+03 -2.981111e+02 -1.998552e+03  2.899876e+03 0.0022 0.0 9.0
22  1 1 2   0   0  2.079952e+03  2.981111e+02  4.985995e+02  2.159554e+03 0.0 0.0 9.0
#pdf 21 2 2.738060e-01 5.045680e-01 5000.0 4.966694e-02 2.645525e-03
</event>
<event>
4 7 1.0 5000.0 7.905138e-03 7.739137e-02
 2 -1 0 0 101   0  0.000000e+00  0.000000e+00  2.278866e+03  2.278866e+03 0.0 0.0 9.0
21 -1 0 0 103 101  0.000000e+00  0.000000e+00 -2.729851e+03  2.729851e+03 0.0 0.0 9.0
22  1 1 2   0   0  2.055483e+03  8.139224e+02 -1.384967e+03  2.608757e+03 0.0 0.0 9.0
 2  1 1 2 103   0 -2.055483e+03 -8.139224e+02  9.339820e+02  2.399959e+03 0.0022 0.0 9.0
#pdf 2 21 3.505948e-01 4.199770e-01 5000.0 1.910328e-01 1.254086e-01
</event>
<event>
4 7 1.0 5000.0 7.905138e-03 7.739137e-02
21 -1 0 0 103 101  0.000000e+00  0.000000e+00  3.279222e+03  3.279222e+03 0.0 0.0 9.0
 2 -1 0 0 101   0  0.000000e+00  0.000000e+00 -1.807080e+03  1.807080e+03 0.0 0.0 9.0
 2  1 1 2 103   0 -8.705860e+02  6.211392e+02  3.020652e+03  3.204383e+03 0.0022 0.0 9.0
22  1 1 2   0   0  8.705860e+02 -6.211392e+02 -1.548510e+03  1.881919e+03 0.0 0.0 9.0
#pdf 21 2 5.044957e-01 2.780123e-01 5000.0 2.648176e-03 4.716480e-02
</event>
<event>
4 7 1.0 5000.0 7.905138e-03 7.739137e-02
 2 -1 0 0 101   0  0.000000e+00  0.000000e+00  4.202867e+03  4.202867e+03 0.0 0.0 9.0
21 -1 0 0 103 101  0.000000e+00  0.000000e+00 -1.643445e+03  1.643445e+03 0.0 0.0 9.0
22  1 1 2   0   0  1.212419e+03 -1.011159e+03  3.616696e+03  3.946251e+03 0.0 0.0 9.0
 2  1 1 2 103   0 -1.212419e+03  1.011159e+03 -1.057275e+03  1.900061e+03 0.0022 0.0 9.0
#pdf 2 21 6.465948e-01 2.528378e-01 5000.0 1.746523e-02 3.097983e-01
</event>
<event>
4 7 1.0 5000.0 7.905138e-03 7.739137e-02
 2 -1 0 0 101   0  0.000000e+00  0.000000e+00  2.622167e+03  2.622167e+03 0.0 0.0 9.0
21 -1 0 0 103 101  0.000000e+00  0.000000e+00 -2.374458e+03  2.374458e+03 0.0 0.0 9.0
22  1 1 2   0   0 -1.847131e+03  1.196357e+02 -1.551532e+03  2.415255e+03 0.0 0.0 9.0
 2  1 1 2 103   0  1.847131e+03 -1.196357e+02  1.799241e+03  2.581370e+03 0.0022 0.0 9.0
#pdf 2 21 4.034104e-01 3.653012e-01 5000.0 1.395438e-01 1.757098e-01
</event>
<event>
4 7 1.0 5000.0 7.905138e-03 7.739137e-02
21 -1 0 0 103 101  0.000000e+00  0.000000e+00  2.964779e+03  2.964779e+03 0.0 0.0 9.0
 2 -1 0 0 101   0  0.000000e+00  0.000000e+00 -2.123780e+03  2.123780e+03 0.0 0.0 9.0
22  1 1 2   0   0  2.094783e+03  6.010846e+02  1.681676e+03  2.752717e+03 0.0 0.0 9.0
 2  1 1 2 103   0 -2.094783e+03 -6.010846e+02 -8.406766e+02  2.335841e+03 0.0022 0.0 9.0
#pdf 21 2 4.561198e-01 3.267353e-01 5000.0 5.091981e-03 2.596286e-02
</event>
<event>
4 7 1.0 5000.0 7.905138e-03 7.739137e-02
21 -1 0 0 103 101  0.000000e+00  0.000000e+00  2.725313e+03  2.725313e+03 0.0 0.0 9.0
 2 -1 0 0 101   0  0.000000e+00  0.000000e+00 -2.458298e+03  2.458298e+03 0.0 0.0 9.0
 2  1 1 2 103   0 -7.517102e+02 -2.228610e+03  1.215621e+03  2.647547e+03 0.0022 0.0 9.0
22  1 1 2   0   0  7.517102e+02  2.228610e+03 -9.486060e+02  2.536065e+03 0.0 0.0 9.0
#pdf 21 2 4.192789e-01 3.781997e-01 5000.0 8.205394e-03 1.378068e-02
</event>
<event>
4 7 1.0 5000.0 7.905138e-03 7.739137e-02
21 -1 0 0 103 101  0.000000e+00  0.000000e+00  4.642876e+03  4.642876e+03 0.0 0.0 9.0
 2 -1 0 0 101   0  0.000000e+00  0.000000e+00 -1.329637e+03  1.329637e+03 0.0 0.0 9.0
 2  1 1 2 103   0  1.521960e+02 -2.276115e+03  2.840031e+03  3.642752e+03 0.0022 0.0 9.0
22  1 1 2   0   0 -1.521960e+02  2.276115e+03  4.732087e+02  2.329762e+03 0.0 0.0 9.0
#pdf 21 2 7.142887e-01 2.045595e-01 5000.0 8.087622e-05 1.185155e-01
</event>
<event>
4 7 1.0 5000.0 7.905138e-03 7.739137e-02
 2 -1 0 0 101   0  0.000000e+00  0.000000e+00  2.865194e+03  2.865194e+03 0.0 0.0 9.0
21 -1 0 0 103 101  0.000000e+00  0.000000e+00 -2.214089e+03  2.214089e+03 0.0 0.0 9.0
 2  1 1 2 103   0 -9.905073e+02 -2.143025e+03 -5.593205e+02  2.426211e+03 0.0022 0.0 9.0
22  1 1 2   0   0  9.905073e+02  2.143025e+03  1.210426e+03  2.653072e+03 0.0 0.0 9.0
#pdf 2 21 4.407991e-01 3.406290e-01 5000.0 1.090336e-01 2.018410e-01
</event>
<event>
4 7 1.0 5000.0 7.905138e-03 7.739137e-02
21 -1 0 0 103 101  0.000000e+00  0.000000e+00  1.221866e+03  1.221866e+03 0.0 0.0 9.0
 2 -1 0 0 101   0  0.000000e+00  0.000000e+00 -5.172630e+03  5.172630e+03 0.0 0.0 9.0
22  1 1 2   0   0 -3.125217e+02  1.590509e+03 -4.419324e+03  4.707209e+03 0.0 0.0 9.0
 2  1 1 2 103   0  3.125217e+02 -1.590509e+03  4.685608e+02  1.687287e+03 0.0022 0.0 9.0
#pdf 21 2 1.879794e-01 7.957892e-01 5000.0 1.474464e-01 1.149932e-05
</event>
<event>
4 7 1.0 5000.0 7.905138e-03 7.739137e-02
 2 -1 0 0 101   0  0.000000e+00  0.000000e+00  3.482543e+03  3.482543e+03 0.0 0.0 9.0
21 -1 0 0 103 101  0.000000e+00  0.000000e+00 -1.844368e+03  1.844368e+03 0.0 0.0 9.0
22  1 1 2   0   0  1.055937e+02 -1.243920e+03  3.137001e+03  3.376279e+03 0.0 0.0 9.0
 2  1 1 2 103   0 -1.055937e+02  1.243920e+03 -1.498825e+03  1.950632e+03 0.0022 0.0 9.0
#pdf 2 21 5.357759e-01 2.837489e-01 5000.0 5.248498e-02 2.694994e-01
</event>
<event>
4 7 1.0 5000.0 7.905138e-03 7.739137e-02
 2 -1 0 0 101   0  0.000000e+00  0.000000e+00  5.606370e+03  5.606370e+03 0.0 0.0 9.0
21 -1 0 0 103 101  0.000000e+00  0.000000e+00 -1.072396e+03  1.072396e+03 0.0 0.0 9.0
22  1 1 2   0   0  1.207031e+02 -2.405141e+03  2.895495e+03  3.766054e+03 0.0 0.0 9.0
 2  1 1 2 103   0 -1.207031e+02  2.405141e+03  1.638480e+03  2.912712e+03 0.0022 0.0 9.0
#pdf 2 21 8.625185e-01 1.649840e-01 5000.0 3.669674e-04 4.299095e-01
</event>
<event>
4 7 1.0 5000.0 7.905138e-03 7.739137e-02
 2 -1 0 0 101   0  0.000000e+00  0.000000e+00  2.471457e+03  2.471457e+03 0.0 0.0 9.0
21 -1 0 0 103 101  0.000000e+00  0.000000e+00 -2.464369e+03  2.464369e+03 0.0 0.0 9.0
22  1 1 2   0   0  4.894471e+02  2.314498e+03 -6.993947e+02  2.466903e+03 0.0 0.0 9.0
 2  1 1 2 103   0 -4.894471e+02 -2.314498e+03  7.064833e+02  2.468922e+03 0.0022 0.0 9.0
#pdf 2 21 3.802242e-01 3.791336e-01 5000.0 1.609460e-01 1.619984e-01
</event>
<event>
4 7 1.0 5000.0 7.905138e-03 7.739137e-02
21 -1 0 0 103 101  0.000000e+00  0.000000e+00  4.247344e+03  4.247344e+03 0.0 0.0 9.0
 2 -1 0 0 101   0  0.000000e+00  0.000000e+00 -1.490090e+03  1.490090e+03 0.0 0.0 9.0
22  1 1 2   0   0  9.919990e+02  3.911489e+01 -1.257273e+03  1.601976e+03 0.0 0.0 9.0
 2  1 1 2 103   0 -9.919990e+02 -3.911489e+01  4.014526e+03  4.135458e+03 0.0022 0.0 9.0
#pdf 21 2 6.534375e-01 2.292447e-01 5000.0 2.607974e-04 8.645677e-02
</event>
<event>
4 7 1.0 5000.0 7.905138e-03 7.739137e-02
 2 -1 0 0 101   0  0.000000e+00  0.000000e+00  3.240725e+03  3.240725e+03 0.0 0.0 9.0
21 -1 0 0 103 101  0.000000e+00  0.000000e+00 -1.390244e+03  1.390244e+03 0.0 0.0 9.0
22  1 1 2   0   0 -2.187147e+01  1.762035e+03  2.216053e+03  2.831278e+03 0.0 0.0 9.0
 2  1 1 2 103   0  2.187147e+01 -1.762035e+03 -3.655714e+02  1.799691e+03 0.0022 0.0 9.0
#pdf 2 21 4.985731e-01 2.138836e-01 5000.0 7.125042e-02 3.628242e-01
</event>
<event>
4 7 1.0 5000.0 7.905138e-03 7.739137e-02
 2 -1 0 0 101   0  0.000000e+00  0.000000e+00  3.693412e+03  3.693412e+03 0.0 0.0 9.0
21 -1 0 0 103 101  0.000000e+00  0.000000e+00 -1.645699e+03  1.645699e+03 0.0 0.0 9.0
 2  1 1 2 103   0  9.192970e+02 -1.681172e+03 -6.559903e+02  2.025283e+03 0.0022 0.0 9.0
22  1 1 2   0   0 -9.192970e+02  1.681172e+03  2.703703e+03  3.313828e+03 0.0 0.0 9.0
#pdf 2 21 5.682172e-01 2.531845e-01 5000.0 3.927608e-02 3.093356e-01
</event>
<event>
4 7 1.0 5000.0 7.905138e-03 7.739137e-02
 2 -1 0 0 101   0  0.000000e+00  0.000000e+00  3.657624e+03  3.657624e+03 0.0 0.0 9.0
21 -1 0 0 103 101  0.000000e+00  0.000000e+00 -1.705487e+03  1.705487e+03 0.0 0.0 9.0
 2  1 1 2 103   0 -8.539059e+02  1.385670e+02  3.491638e+03  3.597206e+03 0.0022 0.0 9.0
22  1 1 2   0   0  8.539059e+02 -1.385670e+02 -1.539501e+03  1.765905e+03 0.0 0.0 9.0
#pdf 2 21 5.627114e-01 2.623826e-01 5000.0 4.133587e-02 2.971662e-01
</event>
<event>
4 7 1.0 5000.0 7.905138e-03 7.739137e-02
21 -1 0 0 103 101  0.000000e+00  0.000000e+00  2.699534e+03  2.699534e+03 0.0 0.0 9.0
 2 -1 0 0 101   0  0.000000e+00  0.000000e+00 -2.261790e+03  2.261790e+03 0.0 0.0 9.0
 2  1 1 2 103   0  1.325247e+03  7.226776e+02  2.182864e+03  2.653948e+03 0.0022 0.0 9.0
22  1 1 2   0   0 -1.325247e+03 -7.226776e+02 -1.745119e+03  2.307376e+03 0.0 0.0 9.0
#pdf 21 2 4.153130e-01 3.479676e-01 5000.0 8.630266e-03 2.001367e-02
</event>
<event>
4 7 1.0 5000.0 7.905138e-03 7.739137e-02
21 -1 0 0 103 101  0.000000e+00  0.000000e+00  1.972559e+03  1.972559e+03 0.0 0.0 9.0
 2 -1 0 0 101   0  0.000000e+00  0.000000e+00 -3.097913e+03  3.097913e+03 0.0 0.0 9.0
22  1 1 2   0   0 -5.619329e+02 -2.234089e+03 -1.482213e+03  2.739320e+03 0.0 0.0 9.0
 2  1 1 2 103   0  5.619329e+02  2.234089e+03  3.568586e+02  2.331152e+03 0.0022 0.0 9.0
#pdf 21 2 3.034706e-01 4.766020e-01 5000.0 3.454474e-02 3.876284e-03
</event>
<event>
4 7 1.0 5000.0 7.905138e-03 7.739137e-02
21 -1 0 0 103 101  0.000000e+00  0.000000e+00  3.916127e+03  3.916127e+03 0.0 0.0 9.0
 2 -1 0 0 101   0  0.000000e+00  0.000000e+00 -1.625115e+03  1.625115e+03 0.0 0.0 9.0
22  1 1 2   0   0 -2.089307e+03 -1.319826e+03  5.887222e+02  2.540420e+03 0.0 0.0 9.0
 2  1 1 2 103   0  2.089307e+03  1.319826e+03  1.702289e+03  3.000822e+03 0.0022 0.0 9.0
#pdf 21 2 6.024811e-01 2.500177e-01 5000.0 6.169685e-04 6.672202e-02
</event>
<event>
4 7 1.0 5000.0 7.905138e-03 7.739137e-02
 2 -1 0 0 101   0  0.000000e+00  0.000000e+00  2.994814e+03  2.994814e+03 0.0 0.0 9.0
21 -1 0 0 103 101  0.000000e+00  0.000000e+00 -2.077079e+03  2.077079e+03 0.0 0.0 9.0
 2  1 1 2 103   0 -4.751902e+01  2.412767e+03  1.099332e+03  2.651836e+03 0.0022 0.0 9.0
22  1 1 2   0   0  4.751902e+01 -2.412767e+03 -1.815971e+02  2.420057e+03 0.0 0.0 9.0
#pdf 2 21 4.607406e-01 3.195506e-01 5000.0 9.472669e-02 2.257729e-01
</event>
<event>
4 7 1.0 5000.0 7.905138e-03 7.739137e-02
 2 -1 0 0 101   0  0.000000e+00  0.000000e+00  2.926574e+03  2.926574e+03 0.0 0.0 9.0
21 -1 0 0 103 101  0.000000e+00  0.000000e+00 -2.083790e+03  2.083790e+03 0.0 0.0 9.0
 2  1 1 2 103   0 -2.069747e+03 -1.824488e+02 -9.325236e+02  2.277442e+03 0.0022 0.0 9.0
22  1 1 2   0   0  2.069747e+03  1.824488e+02  1.775308e+03  2.732921e+03 0.0 0.0 9.0
#pdf 2 21 4.502421e-01 3.205830e-01 5000.0 1.020877e-01 2.245682e-01
</event>
<event>
4 7 1.0 5000.0 7.905138e-03 7.739137e-02
21 -1 0 0 103 101  0.000000e+00  0.000000e+00  1.579336e+03  1.579336e+03 0.0 0.0 9.0
 2 -1 0 0 101   0  0.000000e+00  0.000000e+00 -3.733031e+03  3.733031e+03 0.0 0.0 9.0
 2  1 1 2 103   0  1.480222e+03  1.410557e+03  3.557355e+02  2.075398e+03 0.0022 0.0 9.0
22  1 1 2   0   0 -1.480222e+03 -1.410557e+03 -2.509430e+03  3.236969e+03 0.0 0.0 9.0
#pdf 21 2 2.429747e-01 5.743124e-01 5000.0 7.282949e-02 9.591095e-04
</event>
<event>
4 7 1.0 5000.0 7.905138e-03 7.739137e-02
 2 -1 0 0 101   0  0.000000e+00  0.000000e+00  3.848822e+03  3.848822e+03 0.0 0.0 9.0
21 -1 0 0 103 101  0.000000e+00  0.000000e+00 -1.711797e+03  1.711797e+03 0.0 0.0 9.0
22  1 1 2   0   0  8.554241e+02  1.520059e+02 -1.547679e+03  1.774870e+03 0.0 0.0 9.0
 2  1 1 2 103   0 -8.554241e+02 -1.520059e+02  3.684703e+03  3.785748e+03 0.0022 0.0 9.0
#pdf 2 21 5.921264e-01 2.633534e-01 5000.0 3.122280e-02 2.958898e-01
</event>
<event>
4 7 1.0 5000.0 7.905138e-03 7.739137e-02
 2 -1 0 0 101   0  0.000000e+00  0.000000e+00  3.646244e+03  3.646244e+03 0.0 0.0 9.0
21 -1 0 0 103 101  0.000000e+00  0.000000e+00 -1.565176e+03  1.565176e+03 0.0 0.0 9.0
22  1 1 2   0   0  2.124589e+03  1.072605e+03  1.265809e+03  2.695669e+03 0.0 0.0 9.0
 2  1 1 2 103   0 -2.124589e+03 -1.072605e+03  8.152593e+02  2.515752e+03 0.0022 0.0 9.0
#pdf 2 21 5.609607e-01 2.407963e-01 5000.0 4.200535e-02 3.259900e-01
</event>
<event>
4 7 1.0 5000.0 7.905138e-03 7.739137e-02
 2 -1 0 0 101   0  0.000000e+00  0.000000e+00  2.845649e+03  2.845649e+03 0.0 0.0 9.0
21 -1 0 0 103 101  0.000000e+00  0.000000e+00 -2.101650e+03  2.101650e+03 0.0 0.0 9.0
22  1 1 2   0   0 -1.898907e+03 -1.229112e+03 -5.682057e+02  2.332257e+03 0.0 0.0 9.0
 2  1 1 2 103   0  1.898907e+03  1.229112e+03  1.312204e+03  2.615042e+03 0.0022 0.0 9.0
#pdf 2 21 4.377921e-01 3.233308e-01 5000.0 1.113083e-01 2.213762e-01
</event>
<event>
4 7 1.0 5000.0 7.905138e-03 7.739137e-02
 2 -1 0 0 101   0  0.000000e+00  0.000000e+00  1.830429e+03  1.830429e+03 0.0 0.0 9.0
21 -1 0 0 103 101  0.000000e+00  0.000000e+00 -3.482158e+03  3.482158e+03 0.0 0.0 9.0
22  1 1 2   0   0 -3.880816e+02  2.286661e+03 -1.875067e+03  2.982500e+03 0.0 0.0 9.0
 2  1 1 2 103   0  3.880816e+02 -2.286661e+03  2.233393e+02  2.330087e+03 0.0022 0.0 9.0
#pdf 2 21 2.816045e-01 5.357165e-01 5000.0 2.722264e-01 5.251189e-02
</event>
<event>
4 7 1.0 5000.0 7.905138e-03 7.739137e-02
21 -1 0 0 103 101  0.000000e+00  0.000000e+00  3.647024e+03  3.647024e+03 0.0 0.0 9.0
 2 -1 0 0 101   0  0.000000e+00  0.000000e+00 -1.741697e+03  1.741697e+03 0.0 0.0 9.0
 2  1 1 2 103   0  1.748204e+03  4.699995e+02 -9.219655e+02  2.031536e+03 0.0022 0.0 9.0
22  1 1 2   0   0 -1.748204e+03 -4.699995e+02  2.827292e+03  3.357186e+03 0.0 0.0 9.0
#pdf 21 2 5.610806e-01 2.679535e-01 5000.0 1.174169e-03 5.337356e-02
</event>
<event>
4 7 1.0 5000.0 7.905138e-03 7.739137e-02
 2 -1 0 0 101   0  0.000000e+00  0.000000e+00  2.670152e+03  2.670152e+03 0.0 0.0 9.0
21 -1 0 0 103 101  0.000000e+00  0.000000e+00 -2.290045e+03  2.290045e+03 0.0 0.0 9.0
22  1 1 2   0   0  1.219179e+03 -1.338673e+02  2.343582e+03  2.645127e+03 0.0 0.0 9.0
 2  1 1 2 103   0 -1.219179e+03  1.338673e+02 -1.963475e+03  2.315070e+03 0.0022 0.0 9.0
#pdf 2 21 4.107927e-01 3.523146e-01 5000.0 1.331267e-01 1.892021e-01
</event>
<event>
4 7 1.0 5000.0 7.905138e-03 7.739137e-02
21 -1 0 0 103 101  0.000000e+00  0.000000e+00  2.467697e+03  2.467697e+03 0.0 0.0 9.0
 2 -1 0 0 101   0  0.000000e+00  0.000000e+00 -2.456232e+03  2.456232e+03 0.0 0.0 9.0
22  1 1 2   0   0  8.779850e+02 -1.764706e+03  1.480928e+03  2.465399e+03 0.0 0.0 9.0
 2  1 1 2 103   0 -8.779850e+02  1.764706e+03 -1.469463e+03  2.458529e+03 0.0022 0.0 9.0
#pdf 21 2 3.796457e-01 3.778818e-01 5000.0 1.353540e-02 1.383503e-02
</event>
<event>
4 7 1.0 5000.0 7.905138e-03 7.739137e-02
 2 -1 0 0 101   0  0.000000e+00  0.000000e+00  1.880452e+03  1.880452e+03 0.0 0.0 9.0
21 -1 0 0 103 101  0.000000e+00  0.000000e+00 -3.411777e+03  3.411777e+03 0.0 0.0 9.0
 2  1 1 2 103   0  2.362418e+02 -1.050440e+03  1.629492e+03  1.953069e+03 0.0022 0.0 9.0
22  1 1 2   0   0 -2.362418e+02  1.050440e+03 -3.160816e+03  3.339160e+03 0.0 0.0 9.0
#pdf 2 21 2.893004e-01 5.248887e-01 5000.0 2.624777e-01 5.756335e-02
</event>
<event>
4 7 1.0 5000.0 7.905138e-03 7.739137e-02
 2 -1 0 0 101   0  0.000000e+00  0.000000e+00  3.230528e+03  3.230528e+03 0.0 0.0 9.0
21 -1 0 0 103 101  0.000000e+00  0.000000e+00 -1.881902e+03  1.881902e+03 0.0 0.0 9.0
22  1 1 2   0   0  2.446102e+03 -2.687661e+02  5.140932e+02  2.513950e+03 0.0 0.0 9.0
 2  1 1 2 103   0 -2.446102e+03  2.687661e+02  8.345325e+02  2.598480e+03 0.0022 0.0 9.0
#pdf 2 21 4.970043e-01 2.895234e-01 5000.0 7.213296e-02 2.621970e-01
</event>
<event>
4 7 1.0 5000.0 7.905138e-03 7.739137e-02
 2 -1 0 0 101   0  0.000000e+00  0.000000e+00  2.509998e+03  2.509998e+03 0.0 0.0 9.0
21 -1 0 0 103 101  0.000000e+00  0.000000e+00 -2.238439e+03  2.238439e+03 0.0 0.0 9.0
 2  1 1 2 103   0 -1.676280e+03  1.582720e+03 -4.160877e+02  2.342658e+03 0.0022 0.0 9.0
22  1 1 2   0   0  1.676280e+03 -1.582720e+03  6.876462e+02  2.405779e+03 0.0 0.0 9.0
#pdf 2 21 3.861535e-01 3.443753e-01 5000.0 1.552949e-01 1.977394e-01
</event>
<event>
4 7 1.0 5000.0 7.905138e-03 7.739137e-02
 2 -1 0 0 101   0  0.000000e+00  0.000000e+00  2.327417e+03  2.327417e+03 0.0 0.0 9.0
21 -1 0 0 103 101  0.000000e+00  0.000000e+00 -2.668601e+03  2.668601e+03 0.0 0.0 9.0
 2  1 1 2 103   0 -6.614272e+02 -2.396001e+03 -3.516759e+02  2.510375e+03 0.0022 0.0 9.0
22  1 1 2   0   0  6.614272e+02  2.396001e+03  1.049108e+01  2.485643e+03 0.0 0.0 9.0
#pdf 2 21 3.580641e-01 4.105541e-01 5000.0 1.831582e-01 1.333311e-01
</event>
<event>
4 7 1.0 5000.0 7.905138e-03 7.739137e-02
21 -1 0 0 103 101  0.000000e+00  0.000000e+00  3.145933e+03  3.145933e+03 0.0 0.0 9.0
 2 -1 0 0 101   0  0.000000e+00  0.000000e+00 -1.972566e+03  1.972566e+03 0.0 0.0 9.0
 2  1 1 2 103   0  1.021976e+03  2.251285e+03  2.736513e+02  2.487490e+03 0.0022 0.0 9.0
22  1 1 2   0   0 -1.021976e+03 -2.251285e+03  8.997154e+02  2.631009e+03 0.0 0.0 9.0
#pdf 21 2 4.839897e-01 3.034717e-01 5000.0 3.507200e-03 3.454429e-02
</event>
<event>
4 7 1.0 5000.0 7.905138e-03 7.739137e-02
21 -1 0 0 103 101  0.000000e+00  0.000000e+00  3.354699e+03  3.354699e+03 0.0 0.0 9.0
 2 -1 0 0 101   0  0.000000e+00  0.000000e+00 -1.879857e+03  1.879857e+03 0.0 0.0 9.0
22  1 1 2   0   0 -2.274233e+03  1.437247e+02  1.837231e+03  2.927151e+03 0.0 0.0 9.0
 2  1 1 2 103   0  2.274233e+03 -1.437247e+02 -3.623890e+02  2.307406e+03 0.0022 0.0 9.0
#pdf 21 2 5.161075e-01 2.892088e-01 5000.0 2.252386e-03 4.113121e-02
</event>
<event>
4 7 1.0 5000.0 7.905138e-03 7.739137e-02
 2 -1 0 0 101   0  0.000000e+00  0.000000e+00  2.684256e+03  2.684256e+03 0.0 0.0 9.0
21 -1 0 0 103 101  0.000000e+00  0.000000e+00 -2.365564e+03  2.365564e+03 0.0 0.0 9.0
 2  1 1 2 103   0 -1.210677e+03  2.192011e+03  4.412026e+02  2.542698e+03 0.0022 0.0 9.0
22  1 1 2   0   0  1.210677e+03 -2.192011e+03 -1.225111e+02  2.507122e+03 0.0 0.0 9.0
#pdf 2 21 4.129624e-01 3.639330e-01 5000.0 1.312772e-01 1.771046e-01
</event>
<event>
4 7 1.0 5000.0 7.905138e-03 7.739137e-02
21 -1 0 0 103 101  0.000000e+00  0.000000e+00  2.730167e+03  2.730167e+03 0.0 0.0 9.0
 2 -1 0 0 101   0  0.000000e+00  0.000000e+00 -2.231579e+03  2.231579e+03 0.0 0.0 9.0
22  1 1 2   0   0 -3.448322e+02  2.038954e+03 -1.105279e+03  2.344757e+03 0.0 0.0 9.0
 2  1 1 2 103   0  3.448322e+02 -2.038954e+03  1.603867e+03  2.616989e+03 0.0022 0.0 9.0
#pdf 21 2 4.200257e-01 3.433198e-01 5000.0 8.127634e-03 2.118499e-02
</event>
<event>
4 7 1.0 5000.0 7.905138e-03 7.739137e-02
21 -1 0 0 103 101  0.000000e+00  0.000000e+00  2.139093e+03  2.139093e+03 0.0 0.0 9.0
 2 -1 0 0 101   0  0.000000e+00  0.000000e+00 -2.823094e+03  2.823094e+03 0.0 0.0 9.0
 2  1 1 2 103   0  1.537130e+03 -3.881892e+02  1.553700e+03  2.219785e+03 0.0022 0.0 9.0
22  1 1 2   0   0 -1.537130e+03  3.881892e+02 -2.237702e+03  2.742402e+03 0.0 0.0 9.0
#pdf 21 2 3.290912e-01 4.343222e-01 5000.0 2.522534e-02 6.766955e-03
</event>
<event>
4 7 1.0 5000.0 7.905138e-03 7.739137e-02
21 -1 0 0 103 101  0.000000e+00  0.000000e+00  2.062663e+03  2.062663e+03 0.0 0.0 9.0
 2 -1 0 0 101   0  0.000000e+00  0.000000e+00 -2.989576e+03  2.989576e+03 0.0 0.0 9.0
22  1 1 2   0   0 -1.873462e+03 -8.597102e+02 -1.872114e+03  2.784560e+03 0.0 0.0 9.0
 2  1 1 2 103   0  1.873462e+03  8.597102e+02  9.452009e+02  2.267679e+03 0.0022 0.0 9.0
#pdf 21 2 3.173327e-01 4.599348e-01 5000.0 2.913069e-02 4.839714e-03
</event>
<event>
4 7 1.0 5000.0 7.905138e-03 7.739137e-02
 2 -1 0 0 101   0  0.000000e+00  0.000000e+00  2.036308e+03  2.036308e+03 0.0 0.0 9.0
21 -1 0 0 103 101  0.000000e+00  0.000000e+00 -3.053363e+03  3.053363e+03 0.0 0.0 9.0
22  1 1 2   0   0  4.322152e+02  1.867430e+03 -2.136185e+03  2.870086e+03 0.0 0.0 9.0
 2  1 1 2 103   0 -4.322152e+02 -1.867430e+03  1.119131e+03  2.219585e+03 0.0022 0.0 9.0
#pdf 2 21 3.132782e-01 4.697481e-01 5000.0 2.331567e-01 8.872021e-02
</event>
<event>
4 7 1.0 5000.0 7.905138e-03 7.739137e-02
21 -1 0 0 103 101  0.000000e+00  0.000000e+00  5.256763e+03  5.256763e+03 0.0 0.0 9.0
 2 -1 0 0 101   0  0.000000e+00  0.000000e+00 -1.182978e+03  1.182978e+03 0.0 0.0 9.0
22  1 1 2   0   0  2.070071e+03  3.238585e+02  3.782897e+03  4.324395e+03 0.0 0.0 9.0
 2  1 1 2 103   0 -2.070071e+03 -3.238585e+02  2.908875e+02  2.115347e+03 0.0022 0.0 9.0
#pdf 21 2 8.087328e-01 1.819966e-01 5000.0 7.935725e-06 1.597777e-01
</event>
<event>
4 7 1.0 5000.0 7.905138e-03 7.739137e-02
 2 -1 0 0 101   0  0.000000e+00  0.000000e+00  2.130179e+03  2.130179e+03 0.0 0.0 9.0
21 -1 0 0 103 101  0.000000e+00  0.000000e+00 -2.787328e+03  2.787328e+03 0.0 0.0 9.0
 2  1 1 2 103   0  1.365981e+03 -2.013892e+03 -2.015650e+02  2.441781e+03 0.0022 0.0 9.0
22  1 1 2   0   0 -1.365981e+03  2.013892e+03 -4.555840e+02  2.475727e+03 0.0 0.0 9.0
#pdf 2 21 3.277199e-01 4.288197e-01 5000.0 2.163242e-01 1.182637e-01
</event>
<event>
4 7 1.0 5000.0 7.905138e-03 7.739137e-02
 2 -1 0 0 101   0  0.000000e+00  0.000000e+00  2.256227e+03  2.256227e+03 0.0 0.0 9.0
21 -1 0 0 103 101  0.000000e+00  0.000000e+00 -2.148695e+03  2.148695e+03 0.0 0.0 9.0
 2  1 1 2 103   0  7.992052e+02  1.098764e+03  1.786891e+03  2.244769e+03 0.0022 0.0 9.0
22  1 1 2   0   0 -7.992052e+02 -1.098764e+03 -1.679359e+03  2.160152e+03 0.0 0.0 9.0
#pdf 2 21 3.471118e-01 3.305684e-01 5000.0 1.947723e-01 2.130787e-01
</event>
<event>
4 7 1.0 5000.0 7.905138e-03 7.739137e-02
21 -1 0 0 103 101  0.000000e+00  0.000000e+00  3.053751e+03  3.053751e+03 0.0 0.0 9.0
 2 -1 0 0 101   0  0.000000e+00  0.000000e+00 -2.053152e+03  2.053152e+03 0.0 0.0 9.0
22  1 1 2   0   0  9.395269e+02  2.217210e+03  1.200221e+03  2.690587e+03 0.0 0.0 9.0
 2  1 1 2 103   0 -9.395269e+02 -2.217210e+03 -1.996224e+02  2.416315e+03 0.0022 0.0 9.0
#pdf 21 2 4.698078e-01 3.158695e-01 5000.0 4.245651e-03 2.966090e-02
</event>
<event>
4 7 1.0 5000.0 7.905138e-03 7.739137e-02
 2 -1 0 0 101   0  0.000000e+00  0.000000e+00  4.627007e+03  4.627007e+03 0.0 0.0 9.0
21 -1 0 0 103 101  0.000000e+00  0.000000e+00 -1.282711e+03  1.282711e+03 0.0 0.0 9.0
22  1 1 2   0   0 -2.242314e+03  5.583387e+02  7.362536e+02  2.425239e+03 0.0 0.0 9.0
 2  1 1 2 103   0  2.242314e+03 -5.583387e+02  2.608042e+03  3.484480e+03 0.0022 0.0 9.0
#pdf 2 21 7.118472e-01 1.973402e-01 5000.0 7.591937e-03 3.857094e-01
</event>
<event>
4 7 1.0 5000.0 7.905138e-03 7.739137e-02
 2 -1 0 0 101   0  0.000000e+00  0.000000e+00  2.259684e+03  2.259684e+03 0.0 0.0 9.0
21 -1 0 0 103 101  0.000000e+00  0.000000e+00 -3.062443e+03  3.062443e+03 0.0 0.0 9.0
22  1 1 2   0   0  5.937979e+02 -9.744736e+02 -2.799035e+03  3.022712e+03 0.0 0.0 9.0
 2  1 1 2 103   0 -5.937979e+02  9.744736e+02  1.996276e+03  2.299415e+03 0.0022 0.0 9.0
#pdf 2 21 3.476438e-01 4.711452e-01 5000.0 1.941985e-01 8.781129e-02
</event>
<event>
4 7 1.0 5000.0 7.905138e-03 7.739137e-02
21 -1 0 0 103 101  0.000000e+00  0.000000e+00  2.980614e+03  2.980614e+03 0.0 0.0 9.0
 2 -1 0 0 101   0  0.000000e+00  0.000000e+00 -2.099520e+03  2.099520e+03 0.0 0.0 9.0
22  1 1 2   0   0  2.552683e+02 -5.099870e+02 -2.032630e+03  2.111122e+03 0.0 0.0 9.0
 2  1 1 2 103   0 -2.552683e+02  5.099870e+02  2.913724e+03  2.969013e+03 0.0022 0.0 9.0
#pdf 21 2 4.585560e-01 3.230031e-01 5000.0 4.929482e-03 2.717526e-02
</event>
<event>
4 7 1.0 5000.0 7.905138e-03 7.739137e-02
21 -1 0 0 103 101  0.000000e+00  0.000000e+00  3.043222e+03  3.043222e+03 0.0 0.0 9.0
 2 -1 0 0 101   0  0.000000e+00  0.000000e+00 -1.729843e+03  1.729843e+03 0.0 0.0 9.0
22  1 1 2   0   0 -8.660696e+02 -1.332084e+02 -1.548944e+03  1.779620e+03 0.0 0.0 9.0
 2  1 1 2 103   0  8.660696e+02  1.332084e+02  2.862323e+03  2.993445e+03 0.0022 0.0 9.0
#pdf 21 2 4.681881e-01 2.661297e-01 5000.0 4.338160e-03 5.458788e-02
</event>
<event>
4 7 1.0 5000.0 7.905138e-03 7.739137e-02
 2 -1 0 0 101   0  0.000000e+00  0.000000e+00  3.370023e+03  3.370023e+03 0.0 0.0 9.0
21 -1 0 0 103 101  0.000000e+00  0.000000e+00 -2.020442e+03  2.020442e+03 0.0 0.0 9.0
22  1 1 2   0   0  1.024708e+03 -2.710265e+02  3.137648e+03  3.311845e+03 0.0 0.0 9.0
 2  1 1 2 103   0 -1.024708e+03  2.710265e+02 -1.788067e+03  2.078621e+03 0.0022 0.0 9.0
#pdf 2 21 5.184651e-01 3.108373e-01 5000.0 6.071111e-02 2.360629e-01
</event>
<event>
4 7 1.0 5000.0 7.905138e-03 7.739137e-02
21 -1 0 0 103 101  0.000000e+00  0.000000e+00  2.689791e+03  2.689791e+03 0.0 0.0 9.0
 2 -1 0 0 101   0  0.000000e+00  0.000000e+00 -2.322940e+03  2.322940e+03 0.0 0.0 9.0
 2  1 1 2 103   0 -2.324736e+03  1.729257e+02  1.088028e+03  2.572568e+03 0.0022 0.0 9.0
22  1 1 2   0   0  2.324736e+03 -1.729257e+02 -7.211777e+02  2.440163e+03 0.0 0.0 9.0
#pdf 21 2 4.138140e-01 3.573754e-01 5000.0 8.796370e-03 1.781287e-02
</event>
<event>
4 7 1.0 5000.0 7.905138e-03 7.739137e-02
21 -1 0 0 103 101  0.000000e+00  0.000000e+00  2.189850e+03  2.189850e+03 0.0 0.0 9.0
 2 -1 0 0 101   0  0.000000e+00  0.000000e+00 -3.062105e+03  3.062105e+03 0.0 0.0 9.0
22  1 1 2   0   0  2.320267e+03  4.987738e+02  6.143863e+02  2.451506e+03 0.0 0.0 9.0
 2  1 1 2 103   0 -2.320267e+03 -4.987738e+02 -1.486641e+03  2.800449e+03 0.0022 0.0 9.0
#pdf 21 2 3.369000e-01 4.710930e-01 5000.0 2.291865e-02 4.173490e-03
</event>
<event>
4 7 1.0 5000.0 7.905138e-03 7.739137e-02
21 -1 0 0 103 101  0.000000e+00  0.000000e+00  2.421023e+03  2.421023e+03 0.0 0.0 9.0
 2 -1 0 0 101   0  0.000000e+00  0.000000e+00 -2.682479e+03  2.682479e+03 0.0 0.0 9.0
22  1 1 2   0   0  1.031068e+03  9.064690e+02  2.019082e+03  2.441614e+03 0.0 0.0 9.0
 2  1 1 2 103   0 -1.031068e+03 -9.064690e+02 -2.280539e+03  2.661888e+03 0.0022 0.0 9.0
#pdf 21 2 3.724650e-01 4.126891e-01 5000.0 1.478237e-02 8.923119e-03
</event>
<event>
4 7 1.0 5000.0 7.905138e-03 7.739137e-02
21 -1 0 0 103 101  0.000000e+00  0.000000e+00  3.365051e+03  3.365051e+03 0.0 0.0 9.0
 2 -1 0 0 101   0  0.000000e+00  0.000000e+00 -1.693890e+03  1.693890e+03 0.0 0.0 9.0
22  1 1 2   0   0  1.044937e+03 -2.888042e+02  3.089235e+03  3.273939e+03 0.0 0.0 9.0
 2  1 1 2 103   0 -1.044937e+03  2.888042e+02 -1.418074e+03  1.785003e+03 0.0022 0.0 9.0
#pdf 21 2 5.177002e-01 2.605985e-01 5000.0 2.202210e-03 5.846837e-02
</event>
<event>
4 7 1.0 5000.0 7.905138e-03 7.739137e-02
 2 -1 0 0 101   0  0.000000e+00  0.000000e+00  1.949934e+03  1.949934e+03 0.0 0.0 9.0
21 -1 0 0 103 101  0.000000e+00  0.000000e+00 -3.239757e+03  3.239757e+03 0.0 0.0 9.0
 2  1 1 2 103   0  2.075311e+03 -2.917686e+02 -2.077399e+03  2.950870e+03 0.0022 0.0 9.0
22  1 1 2   0   0 -2.075311e+03  2.917686e+02  7.875758e+02  2.238821e+03 0.0 0.0 9.0
#pdf 2 21 2.999898e-01 4.984242e-01 5000.0 2.492145e-01 7.133386e-02
</event>
<event>
4 7 1.0 5000.0 7.905138e-03 7.739137e-02
21 -1 0 0 103 101  0.000000e+00  0.000000e+00  2.252144e+03  2.252144e+03 0.0 0.0 9.0
 2 -1 0 0 101   0  0.000000e+00  0.000000e+00 -2.844003e+03  2.844003e+03 0.0 0.0 9.0
 2  1 1 2 103   0  7.390090e+02 -7.420901e+02 -2.615595e+03  2.817476e+03 0.0022 0.0 9.0
22  1 1 2   0   0 -7.390090e+02  7.420901e+02  2.023736e+03  2.278671e+03 0.0 0.0 9.0
#pdf 21 2 3.464837e-01 4.375389e-01 5000.0 2.038099e-02 6.493871e-03
</event>
<event>
4 7 1.0 5000.0 7.905138e-03 7.739137e-02
21 -1 0 0 103 101  0.000000e+00  0.000000e+00  2.676612e+03  2.676612e+03 0.0 0.0 9.0
 2 -1 0 0 101   0  0.000000e+00  0.000000e+00 -2.406282e+03  2.406282e+03 0.0 0.0 9.0
 2  1 1 2 103   0 -8.308978e+02  2.250755e+03  9.636162e+02  2.585507e+03 0.0022 0.0 9.0
22  1 1 2   0   0  8.308978e+02 -2.250755e+03 -6.932865e+02  2.497386e+03 0.0 0.0 9.0
#pdf 21 2 4.117864e-01 3.701972e-01 5000.0 9.026188e-03 1.519847e-02
</event>
<event>
4 7 1.0 5000.0 7.905138e-03 7.739137e-02
21 -1 0 0 103 101  0.000000e+00  0.000000e+00  3.367687e+03  3.367687e+03 0.0 0.0 9.0
 2 -1 0 0 101   0  0.000000e+00  0.000000e+00 -1.894942e+03  1.894942e+03 0.0 0.0 9.0
22  1 1 2   0   0  1.557691e+03  1.832432e+03 -6.868647e+01  2.406019e+03 0.0 0.0 9.0
 2  1 1 2 103   0 -1.557691e+03 -1.832432e+03  1.541431e+03  2.856610e+03 0.0022 0.0 9.0
#pdf 21 2 5.181056e-01 2.915296e-01 5000.0 2.189584e-03 3.999110e-02
</event>
<event>
4 7 1.0 5000.0 7.905138e-03 7.739137e-02
 2 -1 0 0 101   0  0.000000e+00  0.000000e+00  3.032554e+03  3.032554e+03 0.0 0.0 9.0
21 -1 0 0 103 101  0.000000e+00  0.000000e+00 -2.050883e+03  2.050883e+03 0.0 0.0 9.0
 2  1 1 2 103   0 -1.752128e+03 -4.848241e+02 -1.249078e+03  2.205721e+03 0.0022 0.0 9.0
22  1 1 2   0   0  1.752128e+03  4.848241e+02  2.230749e+03  2.877716e+03 0.0 0.0 9.0
#pdf 2 21 4.665467e-01 3.155205e-01 5000.0 9.082573e-02 2.305035e-01
</event>
<event>
4 7 1.0 5000.0 7.905138e-03 7.739137e-02
 2 -1 0 0 101   0  0.000000e+00  0.000000e+00  3.418312e+03  3.418312e+03 0.0 0.0 9.0
21 -1 0 0 103 101  0.000000e+00  0.000000e+00 -1.874683e+03  1.874683e+03 0.0 0.0 9.0
22  1 1 2   0   0 -2.422587e+03  7.305782e+02  8.498787e+02  2.669264e+03 0.0 0.0 9.0
 2  1 1 2 103   0  2.422587e+03 -7.305782e+02  6.937509e+02  2.623731e+03 0.0022 0.0 9.0
#pdf 2 21 5.258942e-01 2.884127e-01 5000.0 5.708154e-02 2.635957e-01
</event>
<event>
4 7 1.0 5000.0 7.905138e-03 7.739137e-02
 2 -1 0 0 101   0  0.000000e+00  0.000000e+00  1.699234e+03  1.699234e+03 0.0 0.0 9.0
21 -1 0 0 103 101  0.000000e+00  0.000000e+00 -3.753778e+03  3.753778e+03 0.0 0.0 9.0
 2  1 1 2 103   0 -1.677222e+02  1.106362e+03  1.417008e+03  1.805569e+03 0.0022 0.0 9.0
22  1 1 2   0   0  1.677222e+02 -1.106362e+03 -3.471552e+03  3.647443e+03 0.0 0.0 9.0
#pdf 2 21 2.614206e-01 5.775044e-01 5000.0 2.984320e-01 3.598353e-02
</event>
<event>
4 7 1.0 5000.0 7.905138e-03 7.739137e-02
21 -1 0 0 103 101  0.000000e+00  0.000000e+00  2.228909e+03  2.228909e+03 0.0 0.0 9.0
 2 -1 0 0 101   0  0.000000e+00  0.000000e+00 -2.852641e+03  2.852641e+03 0.0 0.0 9.0
 2  1 1 2 103   0 -5.325817e+02  4.754620e+02  2.124942e+03  2.241670e+03 0.0022 0.0 9.0
22  1 1 2   0   0  5.325817e+02 -4.754620e+02 -2.748674e+03  2.839880e+03 0.0 0.0 9.0
#pdf 21 2 3.429091e-01 4.388678e-01 5000.0 2.129161e-02 6.383563e-03
</event>
<event>
4 7 1.0 5000.0 7.905138e-03 7.739137e-02
21 -1 0 0 103 101  0.000000e+00  0.000000e+00  3.229270e+03  3.229270e+03 0.0 0.0 9.0
 2 -1 0 0 101   0  0.000000e+00  0.000000e+00 -1.978122e+03  1.978122e+03 0.0 0.0 9.0
22  1 1 2   0   0  1.238462e+03  2.201715e+03  5.421838e+02  2.583661e+03 0.0 0.0 9.0
 2  1 1 2 103   0 -1.238462e+03 -2.201715e+03  7.089641e+02  2.623732e+03 0.0022 0.0 9.0
#pdf 21 2 4.968108e-01 3.043265e-01 5000.0 2.945288e-03 3.418991e-02
</event>
<event>
4 7 1.0 5000.0 7.905138e-03 7.739137e-02
21 -1 0 0 103 101  0.000000e+00  0.000000e+00  4.300187e+03  4.300187e+03 0.0 0.0 9.0
 2 -1 0 0 101   0  0.000000e+00  0.000000e+00 -1.352894e+03  1.352894e+03 0.0 0.0 9.0
 2  1 1 2 103   0 -6.353717e+02 -2.315682e+03  1.207406e+03  2.687733e+03 0.0022 0.0 9.0
22  1 1 2   0   0  6.353717e+02  2.315682e+03  1.739886e+03  2.965348e+03 0.0 0.0 9.0
#pdf 21 2 6.615672e-01 2.081376e-01 5000.0 2.252526e-04 1.131564e-01
</event>
<event>
4 7 1.0 5000.0 7.905138e-03 7.739137e-02
21 -1 0 0 103 101  0.000000e+00  0.000000e+00  2.122360e+03  2.122360e+03 0.0 0.0 9.0
 2 -1 0 0 101   0  0.000000e+00  0.000000e+00 -2.932021e+03  2.932021e+03 0.0 0.0 9.0
 2  1 1 2 103   0 -2.078409e+03 -1.030595e+03 -1.333829e+03  2.676007e+03 0.0022 0.0 9.0
22  1 1 2   0   0  2.078409e+03  1.030595e+03  5.241684e+02  2.378374e+03 0.0 0.0 9.0
#pdf 21 2 3.265169e-01 4.510801e-01 5000.0 2.603230e-02 5.440820e-03
</event>
<event>
4 7 1.0 5000.0 7.905138e-03 7.739137e-02
21 -1 0 0 103 101  0.000000e+00  0.000000e+00  1.610343e+03  1.610343e+03 0.0 0.0 9.0
 2 -1 0 0 101   0  0.000000e+00  0.000000e+00 -3.937574e+03  3.937574e+03 0.0 0.0 9.0
22  1 1 2   0   0  2.218640e+03 -5.980179e+02 -2.298247e+03  3.249911e+03 0.0 0.0 9.0
 2  1 1 2 103   0 -2.218640e+03  5.980179e+02 -2.898483e+01  2.298005e+03 0.0022 0.0 9.0
#pdf 21 2 2.477450e-01 6.057806e-01 5000.0 6.860250e-02 5.850949e-04
</event>
<event>
4 7 1.0 5000.0 7.905138e-03 7.739137e-02
 2 -1 0 0 101   0  0.000000e+00  0.000000e+00  3.085455e+03  3.085455e+03 0.0 0.0 9.0
21 -1 0 0 103 101  0.000000e+00  0.000000e+00 -2.052388e+03  2.052388e+03 0.0 0.0 9.0
 2  1 1 2 103   0 -8.296058e+02  2.366679e+03  3.045074e+02  2.526289e+03 0.0022 0.0 9.0
22  1 1 2   0   0  8.296058e+02 -2.366679e+03  7.285590e+02  2.611554e+03 0.0 0.0 9.0
#pdf 2 21 4.746853e-01 3.157520e-01 5000.0 8.553580e-02 2.302304e-01
</event>
<event>
4 7 1.0 5000.0 7.905138e-03 7.739137e-02
 2 -1 0 0 101   0  0.000000e+00  0.000000e+00  1.547701e+03  1.547701e+03 0.0 0.0 9.0
21 -1 0 0 103 101  0.000000e+00  0.000000e+00 -3.934036e+03  3.934036e+03 0.0 0.0 9.0
22  1 1 2   0   0  1.890912e+03  1.167560e+03 -2.012260e+00  2.222330e+03 0.0 0.0 9.0
 2  1 1 2 103   0 -1.890912e+03 -1.167560e+03 -2.384323e+03  3.259408e+03 0.0022 0.0 9.0
#pdf 2 21 2.381079e-01 6.052364e-01 5000.0 3.296359e-01 2.736809e-02
</event>
<event>
4 7 1.0 5000.0 7.905138e-03 7.739137e-02
 2 -1 0 0 101   0  0.000000e+00  0.000000e+00  4.449161e+03  4.449161e+03 0.0 0.0 9.0
21 -1 0 0 103 101  0.000000e+00  0.000000e+00 -1.447348e+03  1.447348e+03 0.0 0.0 9.0
 2  1 1 2 103   0 -2.625084e+02  1.930425e+03  3.390085e+03  3.910004e+03 0.0022 0.0 9.0
22  1 1 2   0   0  2.625084e+02 -1.930425e+03 -3.882716e+02  1.986506e+03 0.0 0.0 9.0
#pdf 2 21 6.844864e-01 2.226689e-01 5000.0 1.100255e-02 3.507577e-01
</event>
<event>
4 7 1.0 5000.0 7.905138e-03 7.739137e-02
 2 -1 0 0 101   0  0.000000e+00  0.000000e+00  2.283114e+03  2.283114e+03 0.0 0.0 9.0
21 -1 0 0 103 101  0.000000e+00  0.000000e+00 -2.752575e+03  2.752575e+03 0.0 0.0 9.0
22  1 1 2   0   0  4.941119e+02 -7.523703e+01 -2.702026e+03  2.747863e+03 0.0 0.0 9.0
 2  1 1 2 103   0 -4.941119e+02  7.523703e+01  2.232564e+03  2.287826e+03 0.0022 0.0 9.0
#pdf 2 21 3.512483e-01 4.234731e-01 5000.0 1.903359e-01 1.225491e-01
</event>
<event>
4 7 1.0 5000.0 7.905138e-03 7.739137e-02
21 -1 0 0 103 101  0.000000e+00  0.000000e+00  2.631438e+03  2.631438e+03 0.0 0.0 9.0
 2 -1 0 0 101   0  0.000000e+00  0.000000e+00 -2.371233e+03  2.371233e+03 0.0 0.0 9.0
 2  1 1 2 103   0  8.047939e+02 -1.262130e+03  2.132585e+03  2.605491e+03 0.0022 0.0 9.0
22  1 1 2   0   0 -8.047939e+02  1.262130e+03 -1.872380e+03  2.397180e+03 0.0 0.0 9.0
#pdf 21 2 4.048366e-01 3.648050e-01 5000.0 9.859821e-03 1.625992e-02
</event>
<event>
4 7 1.0 5000.0 7.905138e-03 7.739137e-02
 2 -1 0 0 101   0  0.000000e+00  0.000000e+00  2.960056e+03  2.960056e+03 0.0 0.0 9.0
21 -1 0 0 103 101  0.000000e+00  0.000000e+00 -2.095680e+03  2.095680e+03 0.0 0.0 9.0
22  1 1 2   0   0  8.131338e+02 -7.251942e+02  2.705353e+03  2.916509e+03 0.0 0.0 9.0
 2  1 1 2 103   0 -8.131338e+02  7.251942e+02 -1.840977e+03  2.139226e+03 0.0022 0.0 9.0
#pdf 2 21 4.553932e-01 3.224123e-01 5000.0 9.843374e-02 2.224408e-01
</event>
<event>
4 7 1.0 5000.0 7.905138e-03 7.739137e-02
 2 -1 0 0 101   0  0.000000e+00  0.000000e+00  4.688461e+03  4.688461e+03 0.0 0.0 9.0
21 -1 0 0 103 101  0.000000e+00  0.000000e+00 -1.320224e+03  1.320224e+03 0.0 0.0 9.0
22  1 1 2   0   0  1.431634e+03 -7.665290e+02  3.960202e+03  4.280227e+03 0.0 0.0 9.0
 2  1 1 2 103   0 -1.431634e+03  7.665290e+02 -5.919652e+02  1.728458e+03 0.0022 0.0 9.0
#pdf 2 21 7.213017e-01 2.031114e-01 5000.0 6.622286e-03 3.777452e-01
</event>
<event>
4 7 1.0 5000.0 7.905138e-03 7.739137e-02
21 -1 0 0 103 101  0.000000e+00  0.000000e+00  3.030999e+03  3.030999e+03 0.0 0.0 9.0
 2 -1 0 0 101   0  0.000000e+00  0.000000e+00 -2.006232e+03  2.006232e+03 0.0 0.0 9.0
 2  1 1 2 103   0 -1.879033e+03 -1.389615e+03  1.316015e+03  2.682105e+03 0.0022 0.0 9.0
22  1 1 2   0   0  1.879033e+03  1.389615e+03 -2.912476e+02  2.355126e+03 0.0 0.0 9.0
#pdf 21 2 4.663076e-01 3.086510e-01 5000.0 4.447801e-03 3.243091e-02
</event>
<event>
4 7 1.0 5000.0 7.905138e-03 7.739137e-02
 2 -1 0 0 101   0  0.000000e+00  0.000000e+00  1.757554e+03  1.757554e+03 0.0 0.0 9.0
21 -1 0 0 103 101  0.000000e+00  0.000000e+00 -3.489236e+03  3.489236e+03 0.0 0.0 9.0
22  1 1 2   0   0  4.263508e+02 -6.801905e+02  1.615889e+03  1.804309e+03 0.0 0.0 9.0
 2  1 1 2 103   0 -4.263508e+02  6.801905e+02 -3.347572e+03  3.442481e+03 0.0022 0.0 9.0
#pdf 2 21 2.703929e-01 5.368056e-01 5000.0 2.866757e-01 5.202000e-02
</event>
<event>
4 7 1.0 5000.0 7.905138e-03 7.739137e-02
 2 -1 0 0 101   0  0.000000e+00  0.000000e+00  2.446580e+03  2.446580e+03 0.0 0.0 9.0
21 -1 0 0 103 101  0.000000e+00  0.000000e+00 -2.757693e+03  2.757693e+03 0.0 0.0 9.0
22  1 1 2   0   0 -1.816500e+03  1.748682e+03 -7.806609e+02  2.639506e+03 0.0 0.0 9.0
 2  1 1 2 103   0  1.816500e+03 -1.748682e+03  4.695475e+02  2.564768e+03 0.0022 0.0 9.0
#pdf 2 21 3.763969e-01 4.242605e-01 5000.0 1.646563e-01 1.219112e-01
</event>
<event>
4 7 1.0 5000.0 7.905138e-03 7.739137e-02
21 -1 0 0 103 101  0.000000e+00  0.000000e+00  2.324039e+03  2.324039e+03 0.0 0.0 9.0
 2 -1 0 0 101   0  0.000000e+00  0.000000e+00 -2.723948e+03  2.723948e+03 0.0 0.0 9.0
22  1 1 2   0   0  3.378513e+02  9.023510e+02  2.131633e+03  2.339282e+03 0.0 0.0 9.0
 2  1 1 2 103   0 -3.378513e+02 -9.023510e+02 -2.531542e+03  2.708705e+03 0.0022 0.0 9.0
#pdf 21 2 3.575445e-01 4.190689e-01 5000.0 1.777584e-02 8.227388e-03
</event>
<event>
4 7 1.0 5000.0 7.905138e-03 7.739137e-02
21 -1 0 0 103 101  0.000000e+00  0.000000e+00  3.043698e+03  3.043698e+03 0.0 0.0 9.0
 2 -1 0 0 101   0  0.000000e+00  0.000000e+00 -2.047564e+03  2.047564e+03 0.0 0.0 9.0
 2  1 1 2 103   0  8.996023e+02 -2.138242e+03  1.438636e+03  2.729659e+03 0.0022 0.0 9.0
22  1 1 2   0   0 -8.996023e+02  2.138242e+03 -4.425024e+02  2.361604e+03 0.0 0.0 9.0
#pdf 21 2 4.682613e-01 3.150099e-01 5000.0 4.333942e-03 2.997774e-02
</event>
<event>
4 7 1.0 5000.0 7.905138e-03 7.739137e-02
21 -1 0 0 103 101  0.000000e+00  0.000000e+00  3.087768e+03  3.087768e+03 0.0 0.0 9.0
 2 -1 0 0 101   0  0.000000e+00  0.000000e+00 -2.025828e+03  2.025828e+03 0.0 0.0 9.0
22  1 1 2   0   0  4.774953e+02  1.219536e+03  2.709189e+03  3.009148e+03 0.0 0.0 9.0
 2  1 1 2 103   0 -4.774953e+02 -1.219536e+03 -1.647249e+03  2.104447e+03 0.0022 0.0 9.0
#pdf 21 2 4.750412e-01 3.116658e-01 5000.0 3.958541e-03 3.124529e-02
</event>
<event>
4 7 1.0 5000.0 7.905138e-03 7.739137e-02
21 -1 0 0 103 101  0.000000e+00  0.000000e+00  3.316329e+03  3.316329e+03 0.0 0.0 9.0
 2 -1 0 0 101   0  0.000000e+00  0.000000e+00 -1.668575e+03  1.668575e+03 0.0 0.0 9.0
22  1 1 2   0   0  1.188497e+03  5.219218e+02  2.902508e+03  3.179541e+03 0.0 0.0 9.0
 2  1 1 2 103   0 -1.188497e+03 -5.219218e+02 -1.254754e+03  1.805363e+03 0.0022 0.0 9.0
#pdf 21 2 5.102044e-01 2.567038e-01 5000.0 2.446470e-03 6.139331e-02
</event>
<event>
4 7 1.0 5000.0 7.905138e-03 7.739137e-02
21 -1 0 0 103 101  0.000000e+00  0.000000e+00  1.516348e+03  1.516348e+03 0.0 0.0 9.0
 2 -1 0 0 101   0  0.000000e+00  0.000000e+00 -4.306916e+03  4.306916e+03 0.0 0.0 9.0
 2  1 1 2 103   0  1.956183e+03  1.676672e+02  4.685116e+02  2.018482e+03 0.0022 0.0 9.0
22  1 1 2   0   0 -1.956183e+03 -1.676672e+02 -3.259080e+03  3.804782e+03 0.0 0.0 9.0
#pdf 21 2 2.332843e-01 6.626025e-01 5000.0 8.220284e-02 2.209079e-04
</event>
<event>
4 7 1.0 5000.0 7.905138e-03 7.739137e-02
 2 -1 0 0 101   0  0.000000e+00  0.000000e+00  2.919608e+03  2.919608e+03 0.0 0.0 9.0
21 -1 0 0 103 101  0.000000e+00  0.000000e+00 -2.114495e+03  2.114495e+03 0.0 0.0 9.0
 2  1 1 2 103   0 -1.637902e+02 -1.935945e+03 -1.166441e+03  2.266119e+03 0.0022 0.0 9.0
22  1 1 2   0   0  1.637902e+02  1.935945e+03  1.971554e+03  2.767984e+03 0.0 0.0 9.0
#pdf 2 21 4.491704e-01 3.253069e-01 5000.0 1.028555e-01 2.190943e-01
</event>
<event>
4 7 1.0 5000.0 7.905138e-03 7.739137e-02
21 -1 0 0 103 101  0.000000e+00  0.000000e+00  2.493709e+03  2.493709e+03 0.0 0.0 9.0
 2 -1 0 0 101   0  0.000000e+00  0.000000e+00 -2.589424e+03  2.589424e+03 0.0 0.0 9.0
22  1 1 2   0   0 -1.141194e+03 -1.383458e+03  1.752737e+03  2.507662e+03 0.0 0.0 9.0
 2  1 1 2 103   0  1.141194e+03  1.383458e+03 -1.848451e+03  2.575471e+03 0.0022 0.0 9.0
#pdf 21 2 3.836476e-01 3.983729e-01 5000.0 1.287406e-02 1.069639e-02
</event>
<event>
4 7 1.0 5000.0 7.905138e-03 7.739137e-02
 2 -1 0 0 101   0  0.000000e+00  0.000000e+00  3.761174e+03  3.761174e+03 0.0 0.0 9.0
21 -1 0 0 103 101  0.000000e+00  0.000000e+00 -1.589086e+03  1.589086e+03 0.0 0.0 9.0
22  1 1 2   0   0  8.865239e+02  1.236807e+03 -1.007693e+03  1.825119e+03 0.0 0.0 9.0
 2  1 1 2 103   0 -8.865239e+02 -1.236807e+03  3.179781e+03  3.525141e+03 0.0022 0.0 9.0
#pdf 2 21 5.786422e-01 2.444748e-01 5000.0 3.559510e-02 3.210506e-01
</event>
<event>
4 7 1.0 5000.0 7.905138e-03 7.739137e-02
21 -1 0 0 103 101  0.000000e+00  0.000000e+00  3.221103e+03  3.221103e+03 0.0 0.0 9.0
 2 -1 0 0 101   0  0.000000e+00  0.000000e+00 -1.957453e+03  1.957453e+03 0.0 0.0 9.0
 2  1 1 2 103   0 -1.385075e+03 -3.828201e+02 -1.491529e+03  2.071145e+03 0.0022 0.0 9.0
22  1 1 2   0   0  1.385075e+03  3.828201e+02  2.755179e+03  3.107410e+03 0.0 0.0 9.0
#pdf 21 2 4.955543e-01 3.011465e-01 5000.0 2.996544e-03 3.551714e-02
</event>
<event>
4 7 1.0 5000.0 7.905138e-03 7.739137e-02
21 -1 0 0 103 101  0.000000e+00  0.000000e+00  3.768372e+03  3.768372e+03 0.0 0.0 9.0
 2 -1 0 0 101   0  0.000000e+00  0.000000e+00 -1.589012e+03  1.589012e+03 0.0 0.0 9.0
22  1 1 2   0   0  7.968015e+02 -1.485593e+03  3.031323e+03  3.468544e+03 0.0 0.0 9.0
 2  1 1 2 103   0 -7.968015e+02  1.485593e+03 -8.519628e+02  1.888841e+03 0.0022 0.0 9.0
#pdf 21 2 5.797496e-01 2.444634e-01 5000.0 8.821797e-04 7.145323e-02
</event>
<event>
4 7 1.0 5000.0 7.905138e-03 7.739137e-02
21 -1 0 0 103 101  0.000000e+00  0.000000e+00  1.758840e+03  1.758840e+03 0.0 0.0 9.0
 2 -1 0 0 101   0  0.000000e+00  0.000000e+00 -3.481797e+03  3.481797e+03 0.0 0.0 9.0
22  1 1 2   0   0 -1.344179e+03 -1.545325e+03  6.091876e+02  2.136810e+03 0.0 0.0 9.0
 2  1 1 2 103   0  1.344179e+03  1.545325e+03 -2.332145e+03  3.103828e+03 0.0022 0.0 9.0
#pdf 21 2 2.705907e-01 5.356611e-01 5000.0 5.166870e-02 1.704369e-03
</event>
<event>
4 7 1.0 5000.0 7.905138e-03 7.739137e-02
21 -1 0 0 103 101  0.000000e+00  0.000000e+00  2.704696e+03  2.704696e+03 0.0 0.0 9.0
 2 -1 0 0 101   0  0.000000e+00  0.000000e+00 -2.288585e+03  2.288585e+03 0.0 0.0 9.0
22  1 1 2   0   0  1.871244e+03 -1.118909e+03  1.410743e+03  2.596865e+03 0.0 0.0 9.0
 2  1 1 2 103   0 -1.871244e+03  1.118909e+03 -9.946324e+02  2.396415e+03 0.0022 0.0 9.0
#pdf 21 2 4.161071e-01 3.520900e-01 5000.0 8.543535e-03 1.902189e-02
</event>
<event>
4 7 1.0 5000.0 7.905138e-03 7.739137e-02
21 -1 0 0 103 101  0.000000e+00  0.000000e+00  2.549530e+03  2.549530e+03 0.0 0.0 9.0
 2 -1 0 0 101   0  0.000000e+00  0.000000e+00 -1.954535e+03  1.954535e+03 0.0 0.0 9.0
22  1 1 2   0   0 -1.159724e+03  7.830525e+02  2.052133e+03  2.483823e+03 0.0 0.0 9.0
 2  1 1 2 103   0  1.159724e+03 -7.830525e+02 -1.457137e+03  2.020242e+03 0.0022 0.0 9.0
#pdf 21 2 3.922355e-01 3.006977e-01 5000.0 1.155389e-02 3.570635e-02
</event>
<event>
4 7 1.0 5000.0 7.905138e-03 7.739137e-02
 2 -1 0 0 101   0  0.000000e+00  0.000000e+00  2.713818e+03  2.713818e+03 0.0 0.0 9.0
21 -1 0 0 103 101  0.000000e+00  0.000000e+00 -2.282202e+03  2.282202e+03 0.0 0.0 9.0
22  1 1 2   0   0 -2.031246e+03 -1.098525e+03  1.147062e+03  2.578462e+03 0.0 0.0 9.0
 2  1 1 2 103   0  2.031246e+03  1.098525e+03 -7.154456e+02  2.417557e+03 0.0022 0.0 9.0
#pdf 2 21 4.175104e-01 3.511079e-01 5000.0 1.274526e-01 1.904854e-01
</event>
<event>
4 7 1.0 5000.0 7.905138e-03 7.739137e-02
 2 -1 0 0 101   0  0.000000e+00  0.000000e+00  1.173925e+03  1.173925e+03 0.0 0.0 9.0
21 -1 0 0 103 101  0.000000e+00  0.000000e+00 -5.438805e+03  5.438805e+03 0.0 0.0 9.0
 2  1 1 2 103   0 -1.461064e+03 -1.673237e+03 -3.708276e+03  4.322700e+03 0.0022 0.0 9.0
22  1 1 2   0   0  1.461064e+03  1.673237e+03 -5.566044e+02  2.290030e+03 0.0 0.0 9.0
#pdf 2 21 1.806039e-01 8.367393e-01 5000.0 4.086191e-01 7.425392e-04
</event>
<event>
4 7 1.0 5000.0 7.905138e-03 7.739137e-02
21 -1 0 0 103 101  0.000000e+00  0.000000e+00  2.624341e+03  2.624341e+03 0.0 0.0 9.0
 2 -1 0 0 101   0  0.000000e+00  0.000000e+00 -2.339251e+03  2.339251e+03 0.0 0.0 9.0
 2  1 1 2 103   0  8.118388e+02  2.346876e+02 -2.190434e+03  2.347799e+03 0.0022 0.0 9.0
22  1 1 2   0   0 -8.118388e+02 -2.346876e+02  2.475523e+03  2.615794e+03 0.0 0.0 9.0
#pdf 21 2 4.037448e-01 3.598848e-01 5000.0 9.996801e-03 1.727282e-02
</event>
<event>
4 7 1.0 5000.0 7.905138e-03 7.739137e-02
21 -1 0 0 103 101  0.000000e+00  0.000000e+00  4.802267e+03  4.802267e+03 0.0 0.0 9.0
 2 -1 0 0 101   0  0.000000e+00  0.000000e+00 -1.584689e+03  1.584689e+03 0.0 0.0 9.0
22  1 1 2   0   0  1.393805e+03 -2.372317e+03  1.378666e+03  3.077548e+03 0.0 0.0 9.0
 2  1 1 2 103   0 -1.393805e+03  2.372317e+03  1.838913e+03  3.309408e+03 0.0022 0.0 9.0
#pdf 21 2 7.388104e-01 2.437983e-01 5000.0 4.751647e-05 7.206690e-02
</event>
<event>
4 7 1.0 5000.0 7.905138e-03 7.739137e-02
21 -1 0 0 103 101  0.000000e+00  0.000000e+00  2.068518e+03  2.068518e+03 0.0 0.0 9.0
 2 -1 0 0 101   0  0.000000e+00  0.000000e+00 -2.490085e+03  2.490085e+03 0.0 0.0 9.0
 2  1 1 2 103   0  1.245236e+03  1.875700e+03 -4.982340e+02  2.305884e+03 0.0022 0.0 9.0
22  1 1 2   0   0 -1.245236e+03 -1.875700e+03  7.666742e+01  2.252719e+03 0.0 0.0 9.0
#pdf 21 2 3.182335e-01 3.830899e-01 5000.0 2.881016e-02 1.296460e-02
</event>
<event>
4 7 1.0 5000.0 7.905138e-03 7.739137e-02
 2 -1 0 0 101   0  0.000000e+00  0.000000e+00  2.558353e+03  2.558353e+03 0.0 0.0 9.0
21 -1 0 0 103 101  0.000000e+00  0.000000e+00 -2.470644e+03  2.470644e+03 0.0 0.0 9.0
 2  1 1 2 103   0 -3.671491e+02  1.504221e+03  2.024888e+03  2.549049e+03 0.0022 0.0 9.0
22  1 1 2   0   0  3.671491e+02 -1.504221e+03 -1.937179e+03  2.479948e+03 0.0 0.0 9.0
#pdf 2 21 3.935928e-01 3.800991e-01 5000.0 1.483824e-01 1.610665e-01
</event>
<event>
4 7 1.0 5000.0 7.905138e-03 7.739137e-02
21 -1 0 0 103 101  0.000000e+00  0.000000e+00  2.355092e+03  2.355092e+03 0.0 0.0 9.0
 2 -1 0 0 101   0  0.000000e+00  0.000000e+00 -2.865951e+03  2.865951e+03 0.0 0.0 9.0
22  1 1 2   0   0 -2.189425e+03  4.306050e+02  1.081616e+03  2.479697e+03 0.0 0.0 9.0
 2  1 1 2 103   0  2.189425e+03 -4.306050e+02 -1.592474e+03  2.741346e+03 0.0022 0.0 9.0
#pdf 21 2 3.623219e-01 4.409155e-01 5000.0 1.676496e-02 6.215925e-03
</event>
<event>
4 7 1.0 5000.0 7.905138e-03 7.739137e-02
21 -1 0 0 103 101  0.000000e+00  0.000000e+00  3.733501e+03  3.733501e+03 0.0 0.0 9.0
 2 -1 0 0 101   0  0.000000e+00  0.000000e+00 -1.644240e+03  1.644240e+03 0.0 0.0 9.0
22  1 1 2   0   0 -2.289836e+03 -8.486732e+02  5.904115e+02  2.512406e+03 0.0 0.0 9.0
 2  1 1 2 103   0  2.289836e+03  8.486732e+02  1.498850e+03  2.865335e+03 0.0022 0.0 9.0
#pdf 21 2 5.743848e-01 2.529600e-01 5000.0 9.580435e-04 6.433522e-02
</event>
<event>
4 7 1.0 5000.0 7.905138e-03 7.739137e-02
21 -1 0 0 103 101  0.000000e+00  0.000000e+00  1.739654e+03  1.739654e+03 0.0 0.0 9.0
 2 -1 0 0 101   0  0.000000e+00  0.000000e+00 -2.827093e+03  2.827093e+03 0.0 0.0 9.0
 2  1 1 2 103   0  1.100824e+03 -1.774483e+03 -1.312534e+03  2.466445e+03 0.0022 0.0 9.0
22  1 1 2   0   0 -1.100824e+03  1.774483e+03  2.250940e+02  2.100303e+03 0.0 0.0 9.0
#pdf 21 2 2.676391e-01 4.349375e-01 5000.0 5.358079e-02 6.713977e-03
</event>
<event>
4 7 1.0 5000.0 7.905138e-03 7.739137e-02
21 -1 0 0 103 101  0.000000e+00  0.000000e+00  2.263045e+03  2.263045e+03 0.0 0.0 9.0
 2 -1 0 0 101   0  0.000000e+00  0.000000e+00 -2.750941e+03  2.750941e+03 0.0 0.0 9.0
 2  1 1 2 103   0 -1.038955e+03 -1.860364e+03 -1.548260e+03  2.633911e+03 0.0022 0.0 9.0
22  1 1 2   0   0  1.038955e+03  1.860364e+03  1.060364e+03  2.380074e+03 0.0 0.0 9.0
#pdf 21 2 3.481608e-01 4.232216e-01 5000.0 1.996628e-02 7.802299e-03
</event>
<event>
4 7 1.0 5000.0 7.905138e-03 7.739137e-02
21 -1 0 0 103 101  0.000000e+00  0.000000e+00  2.293062e+03  2.293062e+03 0.0 0.0 9.0
 2 -1 0 0 101   0  0.000000e+00  0.000000e+00 -2.818316e+03  2.818316e+03 0.0 0.0 9.0
 2  1 1 2 103   0 -2.044261e+03 -3.340418e+02  1.218983e+03  2.403436e+03 0.0022 0.0 9.0
22  1 1 2   0   0  2.044261e+03  3.340418e+02 -1.744237e+03  2.707941e+03 0.0 0.0 9.0
#pdf 21 2 3.527788e-01 4.335870e-01 5000.0 1.885987e-02 6.830761e-03
</event>
<event>
4 7 1.0 5000.0 7.905138e-03 7.739137e-02
21 -1 0 0 103 101  0.000000e+00  0.000000e+00  4.176370e+03  4.176370e+03 0.0 0.0 9.0
 2 -1 0 0 101   0  0.000000e+00  0.000000e+00 -1.513830e+03  1.513830e+03 0.0 0.0 9.0
 2  1 1 2 103   0 -1.657995e+03 -1.793514e+03  2.007036e+03  3.161302e+03 0.0022 0.0 9.0
22  1 1 2   0   0  1.657995e+03  1.793514e+03  6.555045e+02  2.528898e+03 0.0 0.0 9.0
#pdf 21 2 6.425185e-01 2.328969e-01 5000.0 3.159191e-04 8.259951e-02
</event>
<event>
4 7 1.0 5000.0 7.905138e-03 7.739137e-02
21 -1 0 0 103 101  0.000000e+00  0.000000e+00  2.793901e+03  2.793901e+03 0.0 0.0 9.0
 2 -1 0 0 101   0  0.000000e+00  0.000000e+00 -2.169486e+03  2.169486e+03 0.0 0.0 9.0
22  1 1 2   0   0  1.616477e+03 -8.640980e+01  2.182020e+03  2.716924e+03 0.0 0.0 9.0
 2  1 1 2 103   0 -1.616477e+03  8.640980e+01 -1.557605e+03  2.246463e+03 0.0022 0.0 9.0
#pdf 21 2 4.298309e-01 3.337671e-01 5000.0 7.166525e-03 2.381994e-02
</event>
<event>
4 7 1.0 5000.0 7.905138e-03 7.739137e-02
21 -1 0 0 103 101  0.000000e+00  0.000000e+00  2.947163e+03  2.947163e+03 0.0 0.0 9.0
 2 -1 0 0 101   0  0.000000e+00  0.000000e+00 -2.125839e+03  2.125839e+03 0.0 0.0 9.0
 2  1 1 2 103   0 -1.751420e+03 -1.636321e+03 -3.202134e+02  2.418171e+03 0.0022 0.0 9.0
22  1 1 2   0   0  1.751420e+03  1.636321e+03  1.141538e+03  2.654830e+03 0.0 0.0 9.0
#pdf 21 2 4.534097e-01 3.270521e-01 5000.0 5.277750e-03 2.586248e-02
</event>
<event>
4 7 1.0 5000.0 7.905138e-03 7.739137e-02
21 -1 0 0 103 101  0.000000e+00  0.000000e+00  3.326874e+03  3.326874e+03 0.0 0.0 9.0
 2 -1 0 0 101   0  0.000000e+00  0.000000e+00 -1.923808e+03  1.923808e+03 0.0 0.0 9.0
22  1 1 2   0   0 -4.533056e+02  2.479829e+03  4.808384e+02  2.566368e+03 0.0 0.0 9.0
 2  1 1 2 103   0  4.533056e+02 -2.479829e+03  9.222285e+02  2.684314e+03 0.0022 0.0 9.0
#pdf 21 2 5.118268e-01 2.959704e-01 5000.0 2.391769e-03 3.787730e-02
</event>
<event>
4 7 1.0 5000.0 7.905138e-03 7.739137e-02
 2 -1 0 0 101   0  0.000000e+00  0.000000e+00  1.157819e+03  1.157819e+03 0.0 0.0 9.0
21 -1 0 0 103 101  0.000000e+00  0.000000e+00 -5.046579e+03  5.046579e+03 0.0 0.0 9.0
 2  1 1 2 103   0  1.479253e+03  1.905637e+03 -2.140624e+03  3.225200e+03 0.0022 0.0 9.0
22  1 1 2   0   0 -1.479253e+03 -1.905637e+03 -1.748135e+03  2.979198e+03 0.0 0.0 9.0
#pdf 2 21 1.781260e-01 7.763967e-01 5000.0 4.120121e-01 2.684225e-03
</event>
<event>
4 7 1.0 5000.0 7.905138e-03 7.739137e-02
21 -1 0 0 103 101  0.000000e+00  0.000000e+00  2.614150e+03  2.614150e+03 0.0 0.0 9.0
 2 -1 0 0 101   0  0.000000e+00  0.000000e+00 -2.368406e+03  2.368406e+03 0.0 0.0 9.0
 2  1 1 2 103   0 -1.831582e+03  1.651798e+03 -2.065242e+02  2.475032e+03 0.0022 0.0 9.0
22  1 1 2   0   0  1.831582e+03 -1.651798e+03  4.522682e+02  2.507524e+03 0.0 0.0 9.0
#pdf 21 2 4.021769e-01 3.643701e-01 5000.0 1.019648e-02 1.634765e-02
</event>
<event>
4 7 1.0 5000.0 7.905138e-03 7.739137e-02
21 -1 0 0 103 101  0.000000e+00  0.000000e+00  2.156651e+03  2.156651e+03 0.0 0.0 9.0
 2 -1 0 0 101   0  0.000000e+00  0.000000e+00 -2.929198e+03  2.929198e+03 0.0 0.0 9.0
22  1 1 2   0   0 -2.445069e+03 -5.573040e+02 -5.564936e+02  2.568781e+03 0.0 0.0 9.0
 2  1 1 2 103   0  2.445069e+03  5.573040e+02 -2.160535e+02  2.517068e+03 0.0022 0.0 9.0
#pdf 21 2 3.317925e-01 4.506459e-01 5000.0 2.440434e-02 5.471500e-03
</event>
<event>
4 7 1.0 5000.0 7.905138e-03 7.739137e-02
 2 -1 0 0 101   0  0.000000e+00  0.000000e+00  3.758620e+03  3.758620e+03 0.0 0.0 9.0
21 -1 0 0 103 101  0.000000e+00  0.000000e+00 -1.654257e+03  1.654257e+03 0.0 0.0 9.0
22  1 1 2   0   0 -2.796772e+02 -2.378037e+03  2.967322e+02  2.412743e+03 0.0 0.0 9.0
 2  1 1 2 103   0  2.796772e+02  2.378037e+03  1.807630e+03  3.000134e+03 0.0022 0.0 9.0
#pdf 2 21 5.782492e-01 2.545011e-01 5000.0 3.572891e-02 3.075820e-01
</event>
<event>
4 7 1.0 5000.0 7.905138e-03 7.739137e-02
21 -1 0 0 103 101  0.000000e+00  0.000000e+00  1.714043e+03  1.714043e+03 0.0 0.0 9.0
 2 -1 0 0 101   0  0.000000e+00  0.000000e+00 -3.667779e+03  3.667779e+03 0.0 0.0 9.0
 2  1 1 2 103   0 -2.062186e+03  8.656882e+02 -2.193302e+03  3.132507e+03 0.0022 0.0 9.0
22  1 1 2   0   0  2.062186e+03 -8.656882e+02  2.395657e+02  2.249315e+03 0.0 0.0 9.0
#pdf 21 2 2.636989e-01 5.642737e-01 5000.0 5.625403e-02 1.118855e-03
</event>
<event>
4 7 1.0 5000.0 7.905138e-03 7.739137e-02
21 -1 0 0 103 101  0.000000e+00  0.000000e+00  2.153054e+03  2.153054e+03 0.0 0.0 9.0
 2 -1 0 0 101   0  0.000000e+00  0.000000e+00 -2.974653e+03  2.974653e+03 0.0 0.0 9.0
22  1 1 2   0   0 -1.650337e+03  1.761014e+03  3.606180e+02  2.440251e+03 0.0 0.0 9.0
 2  1 1 2 103   0  1.650337e+03 -1.761014e+03 -1.182216e+03  2.687455e+03 0.0022 0.0 9.0
#pdf 21 2 3.312391e-01 4.576389e-01 5000.0 2.457045e-02 4.990104e-03
</event>
<event>
4 7 1.0 5000.0 7.905138e-03 7.739137e-02
21 -1 0 0 103 101  0.000000e+00  0.000000e+00  3.115261e+03  3.115261e+03 0.0 0.0 9.0
 2 -1 0 0 101   0  0.000000e+00  0.000000e+00 -2.094007e+03  2.094007e+03 0.0 0.0 9.0
22  1 1 2   0   0 -6.864512e+02 -1.994041e+03 -9.587053e+02  2.316577e+03 0.0 0.0 9.0
 2  1 1 2 103   0  6.864512e+02  1.994041e+03  1.979960e+03  2.892690e+03 0.0022 0.0 9.0
#pdf 21 2 4.792709e-01 3.221549e-01 5000.0 3.739093e-03 2.745878e-02
</event>
<event>
4 7 1.0 5000.0 7.905138e-03 7.739137e-02
 2 -1 0 0 101   0  0.000000e+00  0.000000e+00  2.187888e+03  2.187888e+03 0.0 0.0 9.0
21 -1 0 0 103 101  0.000000e+00  0.000000e+00 -2.821021e+03  2.821021e+03 0.0 0.0 9.0
 2  1 1 2 103   0  2.052661e+03  1.168405e+03  4.600458e+02  2.406289e+03 0.0022 0.0 9.0
22  1 1 2   0   0 -2.052661e+03 -1.168405e+03 -1.093179e+03  2.602619e+03 0.0 0.0 9.0
#pdf 2 21 3.365981e-01 4.340032e-01 5000.0 2.063030e-01 1.142125e-01
</event>
<event>
4 7 1.0 5000.0 7.905138e-03 7.739137e-02
 2 -1 0 0 101   0  0.000000e+00  0.000000e+00  2.175245e+03  2.175245e+03 0.0 0.0 9.0
21 -1 0 0 103 101  0.000000e+00  0.000000e+00 -2.859544e+03  2.859544e+03 0.0 0.0 9.0
22  1 1 2   0   0  9.431109e+02  8.907833e+02  1.807885e+03  2.225175e+03 0.0 0.0 9.0
 2  1 1 2 103   0 -9.431109e+02 -8.907833e+02 -2.492185e+03  2.809615e+03 0.0022 0.0 9.0
#pdf 2 21 3.346531e-01 4.399299e-01 5000.0 2.084741e-01 1.096886e-01
</event>
<event>
4 7 1.0 5000.0 7.905138e-03 7.739137e-02
21 -1 0 0 103 101  0.000000e+00  0.000000e+00  2.721512e+03  2.721512e+03 0.0 0.0 9.0
 2 -1 0 0 101   0  0.000000e+00  0.000000e+00 -2.321762e+03  2.321762e+03 0.0 0.0 9.0
22  1 1 2   0   0 -2.306700e+03  4.245892e+02  1.106920e+03  2.593533e+03 0.0 0.0 9.0
 2  1 1 2 103   0  2.306700e+03 -4.245892e+02 -7.071699e+02  2.449741e+03 0.0022 0.0 9.0
#pdf 21 2 4.186941e-01 3.571941e-01 5000.0 8.266767e-03 1.785269e-02
</event>
<event>
4 7 1.0 5000.0 7.905138e-03 7.739137e-02
21 -1 0 0 103 101  0.000000e+00  0.000000e+00  2.715177e+03  2.715177e+03 0.0 0.0 9.0
 2 -1 0 0 101   0  0.000000e+00  0.000000e+00 -2.242328e+03  2.242328e+03 0.0 0.0 9.0
 2  1 1 2 103   0  1.476007e+03 -7.396143e+02  2.078587e+03  2.654459e+03 0.0022 0.0 9.0
22  1 1 2   0   0 -1.476007e+03  7.396143e+02 -1.605739e+03  2.303046e+03 0.0 0.0 9.0
#pdf 21 2 4.177195e-01 3.449736e-01 5000.0 8.370012e-03 2.076103e-02
</event>
<event>
4 7 1.0 5000.0 7.905138e-03 7.739137e-02
21 -1 0 0 103 101  0.000000e+00  0.000000e+00  1.528872e+03  1.528872e+03 0.0 0.0 9.0
 2 -1 0 0 101   0  0.000000e+00  0.000000e+00 -3.899674e+03  3.899674e+03 0.0 0.0 9.0
22  1 1 2   0   0  1.646479e+03  4.076911e+02  7.670536e+02  1.861579e+03 0.0 0.0 9.0
 2  1 1 2 103   0 -1.646479e+03 -4.076911e+02 -3.137856e+03  3.566966e+03 0.0022 0.0 9.0
#pdf 21 2 2.352110e-01 5.999499e-01 5000.0 8.026070e-02 6.423836e-04
</event>
<event>
4 7 1.0 5000.0 7.905138e-03 7.739137e-02
21 -1 0 0 103 101  0.000000e+00  0.000000e+00  1.736414e+03  1.736414e+03 0.0 0.0 9.0
 2 -1 0 0 101   0  0.000000e+00  0.000000e+00 -2.569852e+03  2.569852e+03 0.0 0.0 9.0
 2  1 1 2 103   0  8.395483e+02  1.937090e+03 -3.434302e+02  2.138949e+03 0.0022 0.0 9.0
22  1 1 2   0   0 -8.395483e+02 -1.937090e+03 -4.900073e+02  2.167317e+03 0.0 0.0 9.0
#pdf 21 2 2.671407e-01 3.953618e-01 5000.0 5.391107e-02 1.110877e-02
</event>
<event>
4 7 1.0 5000.0 7.905138e-03 7.739137e-02
 2 -1 0 0 101   0  0.000000e+00  0.000000e+00  3.270022e+03  3.270022e+03 0.0 0.0 9.0
21 -1 0 0 103 101  0.000000e+00  0.000000e+00 -1.648725e+03  1.648725e+03 0.0 0.0 9.0
 2  1 1 2 103   0  8.670548e+02  2.039472e+03  7.671223e+01  2.217457e+03 0.0022 0.0 9.0
22  1 1 2   0   0 -8.670548e+02 -2.039472e+03  1.544584e+03  2.701290e+03 0.0 0.0 9.0
#pdf 2 21 5.030803e-01 2.536500e-01 5000.0 6.875755e-02 3.087150e-01
</event>
<event>
4 7 1.0 5000.0 7.905138e-03 7.739137e-02
21 -1 0 0 103 101  0.000000e+00  0.000000e+00  2.682400e+03  2.682400e+03 0.0 0.0 9.0
 2 -1 0 0 101   0  0.000000e+00  0.000000e+00 -2.334848e+03  2.334848e+03 0.0 0.0 9.0
22  1 1 2   0   0  2.074336e+03  6.113704e+02 -1.088761e+03  2.421166e+03 0.0 0.0 9.0
 2  1 1 2 103   0 -2.074336e+03 -6.113704e+02  1.436314e+03  2.596082e+03 0.0022 0.0 9.0
#pdf 21 2 4.126769e-01 3.592074e-01 5000.0 8.924504e-03 1.741671e-02
</event>
<event>
4 7 1.0 5000.0 7.905138e-03 7.739137e-02
 2 -1 0 0 101   0  0.000000e+00  0.000000e+00  1.974862e+03  1.974862e+03 0.0 0.0 9.0
21 -1 0 0 103 101  0.000000e+00  0.000000e+00 -3.075826e+03  3.075826e+03 0.0 0.0 9.0
 2  1 1 2 103   0  7.618009e+00  7.072126e+02  1.868650e+03  1.998014e+03 0.0022 0.0 9.0
22  1 1 2   0   0 -7.618009e+00 -7.072126e+02 -2.969615e+03  3.052674e+03 0.0 0.0 9.0
#pdf 2 21 3.038249e-01 4.732041e-01 5000.0 2.445205e-01 8.648299e-02
</event>
<event>
4 7 1.0 5000.0 7.905138e-03 7.739137e-02
21 -1 0 0 103 101  0.000000e+00  0.000000e+00  3.474641e+03  3.474641e+03 0.0 0.0 9.0
 2 -1 0 0 101   0  0.000000e+00  0.000000e+00 -1.751985e+03  1.751985e+03 0.0 0.0 9.0
22  1 1 2   0   0  1.429796e+03  1.833382e+02 -1.259576e+03  1.914279e+03 0.0 0.0 9.0
 2  1 1 2 103   0 -1.429796e+03 -1.833382e+02  2.982233e+03  3.312347e+03 0.0022 0.0 9.0
#pdf 21 2 5.345602e-01 2.695361e-01 5000.0 1.732129e-03 5.234342e-02
</event>
<event>
4 7 1.0 5000.0 7.905138e-03 7.739137e-02
 2 -1 0 0 101   0  0.000000e+00  0.000000e+00  4.286576e+03  4.286576e+03 0.0 0.0 9.0
21 -1 0 0 103 101  0.000000e+00  0.000000e+00 -1.473241e+03  1.473241e+03 0.0 0.0 9.0
22  1 1 2   0   0 -1.338291e+03 -1.363696e+03  3.277315e+03  3.793611e+03 0.0 0.0 9.0
 2  1 1 2 103   0  1.338291e+03  1.363696e+03 -4.639801e+02  1.966206e+03 0.0022 0.0 9.0
#pdf 2 21 6.594732e-01 2.266524e-01 5000.0 1.502319e-02 3.453112e-01
</event>
<event>
4 7 1.0 5000.0 7.905138e-03 7.739137e-02
21 -1 0 0 103 101  0.000000e+00  0.000000e+00  2.215214e+03  2.215214e+03 0.0 0.0 9.0
 2 -1 0 0 101   0  0.000000e+00  0.000000e+00 -2.784053e+03  2.784053e+03 0.0 0.0 9.0
22  1 1 2   0   0  5.780121e+02 -1.025720e+03 -2.485280e+03  2.750058e+03 0.0 0.0 9.0
 2  1 1 2 103   0 -5.780121e+02  1.025720e+03  1.916440e+03  2.249210e+03 0.0022 0.0 9.0
#pdf 21 2 3.408021e-01 4.283159e-01 5000.0 2.184731e-02 7.307194e-03
</event>
<event>
4 7 1.0 5000.0 7.905138e-03 7.739137e-02
 2 -1 0 0 101   0  0.000000e+00  0.000000e+00  4.680934e+03  4.680934e+03 0.0 0.0 9.0
21 -1 0 0 103 101  0.000000e+00  0.000000e+00 -1.308138e+03  1.308138e+03 0.0 0.0 9.0
 2  1 1 2 103   0  8.306828e+02 -1.075940e+03 -8.158850e+02  1.585355e+03 0.0022 0.0 9.0
22  1 1 2   0   0 -8.306828e+02  1.075940e+03  4.188681e+03  4.403717e+03 0.0 0.0 9.0
#pdf 2 21 7.201436e-01 2.012520e-01 5000.0 6.735700e-03 3.803010e-01
</event>
<event>
4 7 1.0 5000.0 7.905138e-03 7.739137e-02
 2 -1 0 0 101   0  0.000000e+00  0.000000e+00  3.080767e+03  3.080767e+03 0.0 0.0 9.0
21 -1 0 0 103 101  0.000000e+00  0.000000e+00 -1.944165e+03  1.944165e+03 0.0 0.0 9.0
 2  1 1 2 103   0  2.227573e+01 -2.440243e+03  3.783414e+02  2.469499e+03 0.0022 0.0 9.0
22  1 1 2   0   0 -2.227573e+01  2.440243e+03  7.582601e+02  2.555433e+03 0.0 0.0 9.0
#pdf 2 21 4.739641e-01 2.991023e-01 5000.0 8.599610e-02 2.502991e-01
</event>
<event>
4 7 1.0 5000.0 7.905138e-03 7.739137e-02
 2 -1 0 0 101   0  0.000000e+00  0.000000e+00  3.920250e+03  3.920250e+03 0.0 0.0 9.0
21 -1 0 0 103 101  0.000000e+00  0.000000e+00 -1.584461e+03  1.584461e+03 0.0 0.0 9.0
 2  1 1 2 103   0  2.403985e+03 -5.585136e+02  7.847009e+02  2.589757e+03 0.0022 0.0 9.0
22  1 1 2   0   0 -2.403985e+03  5.585136e+02  1.551089e+03  2.914955e+03 0.0 0.0 9.0
#pdf 2 21 6.031155e-01 2.437632e-01 5000.0 2.796670e-02 3.220010e-01
</event>
<event>
4 7 1.0 5000.0 7.905138e-03 7.739137e-02
21 -1 0 0 103 101  0.000000e+00  0.000000e+00  2.361519e+03  2.361519e+03 0.0 0.0 9.0
 2 -1 0 0 101   0  0.000000e+00  0.000000e+00 -2.598247e+03  2.598247e+03 0.0 0.0 9.0
 2  1 1 2 103   0 -1.951165e+03  8.072524e+01 -1.643995e+03  2.552701e+03 0.0022 0.0 9.0
22  1 1 2   0   0  1.951165e+03 -8.072524e+01  1.407267e+03  2.407065e+03 0.0 0.0 9.0
#pdf 21 2 3.633106e-01 3.997304e-01 5000.0 1.656261e-02 1.051539e-02
</event>
<event>
4 7 1.0 5000.0 7.905138e-03 7.739137e-02
21 -1 0 0 103 101  0.000000e+00  0.000000e+00  2.967727e+03  2.967727e+03 0.0 0.0 9.0
 2 -1 0 0 101   0  0.000000e+00  0.000000e+00 -2.107562e+03  2.107562e+03 0.0 0.0 9.0
 2  1 1 2 103   0  1.365949e+03  2.062558e+03  5.767275e+01  2.474528e+03 0.0022 0.0 9.0
22  1 1 2   0   0 -1.365949e+03 -2.062558e+03  8.024929e+02  2.600761e+03 0.0 0.0 9.0
#pdf 21 2 4.565734e-01 3.242402e-01 5000.0 5.061376e-03 2.676718e-02
</event>
<event>
4 7 1.0 5000.0 7.905138e-03 7.739137e-02
 2 -1 0 0 101   0  0.000000e+00  0.000000e+00  2.212748e+03  2.212748e+03 0.0 0.0 9.0
21 -1 0 0 103 101  0.000000e+00  0.000000e+00 -2.805162e+03  2.805162e+03 0.0 0.0 9.0
22  1 1 2   0   0  2.321215e+03 -6.054110e+02 -9.736644e+02  2.588935e+03 0.0 0.0 9.0
 2  1 1 2 103   0 -2.321215e+03  6.054110e+02  3.812500e+02  2.428974e+03 0.0022 0.0 9.0
#pdf 2 21 3.404227e-01 4.315634e-01 5000.0 2.020682e-01 1.161074e-01
</event>
<event>
4 7 1.0 5000.0 7.905138e-03 7.739137e-02
 2 -1 0 0 101   0  0.000000e+00  0.000000e+00  2.034056e+03  2.034056e+03 0.0 0.0 9.0
21 -1 0 0 103 101  0.000000e+00  0.000000e+00 -3.087201e+03  3.087201e+03 0.0 0.0 9.0
 2  1 1 2 103   0  1.591387e+03 -1.572352e+03  6.271273e+02  2.323380e+03 0.0022 0.0 9.0
22  1 1 2   0   0 -1.591387e+03  1.572352e+03 -1.680272e+03  2.797877e+03 0.0 0.0 9.0
#pdf 2 21 3.129317e-01 4.749540e-01 5000.0 2.335680e-01 8.536480e-02
</event>
<event>
4 7 1.0 5000.0 7.905138e-03 7.739137e-02
21 -1 0 0 103 101  0.000000e+00  0.000000e+00  4.362720e+03  4.362720e+03 0.0 0.0 9.0
 2 -1 0 0 101   0  0.000000e+00  0.000000e+00 -1.475199e+03  1.475199e+03 0.0 0.0 9.0
 2  1 1 2 103   0 -7.497289e+02 -6.913283e+02 -1.228964e+03  1.596991e+03 0.0022 0.0 9.0
22  1 1 2   0   0  7.497289e+02  6.913283e+02  4.116484e+03  4.240928e+03 0.0 0.0 9.0
#pdf 21 2 6.711876e-01 2.269537e-01 5000.0 1.886614e-04 8.900074e-02
</event>
<event>
4 7 1.0 5000.0 7.905138e-03 7.739137e-02
21 -1 0 0 103 101  0.000000e+00  0.000000e+00  1.461141e+03  1.461141e+03 0.0 0.0 9.0
 2 -1 0 0 101   0  0.000000e+00  0.000000e+00 -3.956062e+03  3.956062e+03 0.0 0.0 9.0
 2  1 1 2 103   0  6.690909e+02 -1.968989e+03  1.118331e+02  2.082572e+03 0.0022 0.0 9.0
22  1 1 2   0   0 -6.690909e+02  1.968989e+03 -2.606754e+03  3.334631e+03 0.0 0.0 9.0
#pdf 21 2 2.247910e-01 6.086249e-01 5000.0 9.149016e-02 5.586366e-04
</event>
<event>
4 7 1.0 5000.0 7.905138e-03 7.739137e-02
 2 -1 0 0 101   0  0.000000e+00  0.000000e+00  1.408599e+03  1.408599e+03 0.0 0.0 9.0
21 -1 0 0 103 101  0.000000e+00  0.000000e+00 -3.376943e+03  3.376943e+03 0.0 0.0 9.0
22  1 1 2   0   0 -1.217260e+03 -9.230801e+02  7.235561e+02  1.690364e+03 0.0 0.0 9.0
 2  1 1 2 103   0  1.217260e+03  9.230801e+02 -2.691900e+03  3.095178e+03 0.0022 0.0 9.0
#pdf 2 21 2.167075e-01 5.195297e-01 5000.0 3.589323e-01 6.018073e-02
</event>
<event>
4 7 1.0 5000.0 7.905138e-03 7.739137e-02
 2 -1 0 0 101   0  0.000000e+00  0.000000e+00  1.907229e+03  1.907229e+03 0.0 0.0 9.0
21 -1 0 0 103 101  0.000000e+00  0.000000e+00 -3.169799e+03  3.169799e+03 0.0 0.0 9.0
22  1 1 2   0   0  1.687766e+03 -1.531682e+03 -1.583662e+03  2.775354e+03 0.0 0.0 9.0
 2  1 1 2 103   0 -1.687766e+03  1.531682e+03  3.210912e+02  2.301674e+03 0.0022 0.0 9.0
#pdf 2 21 2.934198e-01 4.876614e-01 5000.0 2.573184e-01 7.754956e-02
</event>
<event>
4 7 1.0 5000.0 7.905138e-03 7.739137e-02
21 -1 0 0 103 101  0.000000e+00  0.000000e+00  2.770681e+03  2.770681e+03 0.0 0.0 9.0
 2 -1 0 0 101   0  0.000000e+00  0.000000e+00 -2.069023e+03  2.069023e+03 0.0 0.0 9.0
 2  1 1 2 103   0 -9.034721e+02 -1.042585e+03 -1.626942e+03  2.133116e+03 0.0022 0.0 9.0
22  1 1 2   0   0  9.034721e+02  1.042585e+03  2.328599e+03  2.706588e+03 0.0 0.0 9.0
#pdf 21 2 4.262586e-01 3.183113e-01 5000.0 7.503623e-03 2.878269e-02
</event>
<event>
4 7 1.0 5000.0 7.905138e-03 7.739137e-02
 2 -1 0 0 101   0  0.000000e+00  0.000000e+00  2.295797e+03  2.295797e+03 0.0 0.0 9.0
21 -1 0 0 103 101  0.000000e+00  0.000000e+00 -2.735205e+03  2.735205e+03 0.0 0.0 9.0
22  1 1 2   0   0 -8.399533e+02  1.709037e+03 -1.854801e+03  2.658311e+03 0.0 0.0 9.0
 2  1 1 2 103   0  8.399533e+02 -1.709037e+03  1.415394e+03  2.372692e+03 0.0022 0.0 9.0
#pdf 2 21 3.531996e-01 4.208008e-01 5000.0 1.882641e-01 1.247309e-01
</event>
<event>
4 7 1.0 5000.0 7.905138e-03 7.739137e-02
 2 -1 0 0 101   0  0.000000e+00  0.000000e+00  1.744069e+03  1.744069e+03 0.0 0.0 9.0
21 -1 0 0 103 101  0.000000e+00  0.000000e+00 -3.575518e+03  3.575518e+03 0.0 0.0 9.0
22  1 1 2   0   0 -5.787259e+02  1.531824e+03  1.092390e+03  1.968432e+03 0.0 0.0 9.0
 2  1 1 2 103   0  5.787259e+02 -1.531824e+03 -2.923839e+03  3.351156e+03 0.0022 0.0 9.0
#pdf 2 21 2.683183e-01 5.500798e-01 5000.0 2.893822e-01 4.631171e-02
</event>
<event>
4 7 1.0 5000.0 7.905138e-03 7.739137e-02
21 -1 0 0 103 101  0.000000e+00  0.000000e+00  2.140380e+03  2.140380e+03 0.0 0.0 9.0
 2 -1 0 0 101   0  0.000000e+00  0.000000e+00 -3.053044e+03  3.053044e+03 0.0 0.0 9.0
 2  1 1 2 103   0 -5.086927e+02  1.464981e+02  2.084092e+03  2.150272e+03 0.0022 0.0 9.0
22  1 1 2   0   0  5.086927e+02 -1.464981e+02 -2.996755e+03  3.043152e+03 0.0 0.0 9.0
#pdf 21 2 3.292893e-01 4.696990e-01 5000.0 2.516426e-02 4.251808e-03
</event>
<event>
4 7 1.0 5000.0 7.905138e-03 7.739137e-02
 2 -1 0 0 101   0  0.000000e+00  0.000000e+00  3.961468e+03  3.961468e+03 0.0 0.0 9.0
21 -1 0 0 103 101  0.000000e+00  0.000000e+00 -1.624620e+03  1.624620e+03 0.0 0.0 9.0
 2  1 1 2 103   0  2.389791e+03  1.862561e+02  2.538350e+02  2.410441e+03 0.0022 0.0 9.0
22  1 1 2   0   0 -2.389791e+03 -1.862561e+02  2.083013e+03  3.175647e+03 0.0 0.0 9.0
#pdf 2 21 6.094565e-01 2.499415e-01 5000.0 2.620391e-02 3.136786e-01
</event>
<event>
4 7 1.0 5000.0 7.905138e-03 7.739137e-02
 2 -1 0 0 101   0  0.000000e+00  0.000000e+00  4.253245e+03  4.253245e+03 0.0 0.0 9.0
21 -1 0 0 103 101  0.000000e+00  0.000000e+00 -1.471662e+03  1.471662e+03 0.0 0.0 9.0
 2  1 1 2 103   0 -2.235009e+03 -9.489218e+02  7.008704e+02  2.527239e+03 0.0022 0.0 9.0
22  1 1 2   0   0  2.235009e+03  9.489218e+02  2.080712e+03  3.197668e+03 0.0 0.0 9.0
#pdf 2 21 6.543453e-01 2.264096e-01 5000.0 1.596578e-02 3.456431e-01
</event>
<event>
4 7 1.0 5000.0 7.905138e-03 7.739137e-02
21 -1 0 0 103 101  0.000000e+00  0.000000e+00  2.223398e+03  2.223398e+03 0.0 0.0 9.0
 2 -1 0 0 101   0  0.000000e+00  0.000000e+00 -2.786010e+03  2.786010e+03 0.0 0.0 9.0
 2  1 1 2 103   0  1.488224e+03  1.096337e+03 -1.958543e+03  2.693076e+03 0.0022 0.0 9.0
22  1 1 2   0   0 -1.488224e+03 -1.096337e+03  1.395931e+03  2.316332e+03 0.0 0.0 9.0
#pdf 21 2 3.420612e-01 4.286169e-01 5000.0 2.151343e-02 7.278983e-03
</event>
<event>
4 7 1.0 5000.0 7.905138e-03 7.739137e-02
21 -1 0 0 103 101  0.000000e+00  0.000000e+00  2.460047e+03  2.460047e+03 0.0 0.0 9.0
 2 -1 0 0 101   0  0.000000e+00  0.000000e+00 -2.586467e+03  2.586467e+03 0.0 0.0 9.0
 2  1 1 2 103   0 -1.158722e+03  1.706905e+03 -1.515103e+03  2.559629e+03 0.0022 0.0 9.0
22  1 1 2   0   0  1.158722e+03 -1.706905e+03  1.388683e+03  2.486886e+03 0.0 0.0 9.0
#pdf 21 2 3.784687e-01 3.979181e-01 5000.0 1.373481e-02 1.075769e-02
</event>
<event>
4 7 1.0 5000.0 7.905138e-03 7.739137e-02
 2 -1 0 0 101   0  0.000000e+00  0.000000e+00  1.726332e+03  1.726332e+03 0.0 0.0 9.0
21 -1 0 0 103 101  0.000000e+00  0.000000e+00 -3.280893e+03  3.280893e+03 0.0 0.0 9.0
 2  1 1 2 103   0 -6.551411e+02  2.204073e+03 -1.315616e+02  2.303141e+03 0.0022 0.0 9.0
22  1 1 2   0   0  6.551411e+02 -2.204073e+03 -1.422998e+03  2.704084e+03 0.0 0.0 9.0
#pdf 2 21 2.655896e-01 5.047527e-01 5000.0 2.929540e-01 6.784832e-02
</event>
<event>
4 7 1.0 5000.0 7.905138e-03 7.739137e-02
21 -1 0 0 103 101  0.000000e+00  0.000000e+00  2.633014e+03  2.633014e+03 0.0 0.0 9.0
 2 -1 0 0 101   0  0.000000e+00  0.000000e+00 -2.371159e+03  2.371159e+03 0.0 0.0 9.0
22  1 1 2   0   0 -8.241412e+02 -7.105135e+02  2.383292e+03  2.619947e+03 0.0 0.0 9.0
 2  1 1 2 103   0  8.241412e+02  7.105135e+02 -2.121437e+03  2.384226e+03 0.0022 0.0 9.0
#pdf 21 2 4.050791e-01 3.647937e-01 5000.0 9.829630e-03 1.626220e-02
</event>
<event>
4 7 1.0 5000.0 7.905138e-03 7.739137e-02
 2 -1 0 0 101   0  0.000000e+00  0.000000e+00  3.203024e+03  3.203024e+03 0.0 0.0 9.0
21 -1 0 0 103 101  0.000000e+00  0.000000e+00 -1.685549e+03  1.685549e+03 0.0 0.0 9.0
 2  1 1 2 103   0  4.898255e+02 -8.721443e+02 -1.447454e+03  1.759457e+03 0.0022 0.0 9.0
22  1 1 2   0   0 -4.898255e+02  8.721443e+02  2.964929e+03  3.129117e+03 0.0 0.0 9.0
#pdf 2 21 4.927730e-01 2.593153e-01 5000.0 7.455194e-02 3.012065e-01
</event>
<event>
4 7 1.0 5000.0 7.905138e-03 7.739137e-02
 2 -1 0 0 101   0  0.000000e+00  0.000000e+00  3.349991e+03  3.349991e+03 0.0 0.0 9.0
21 -1 0 0 103 101  0.000000e+00  0.000000e+00 -2.163675e+03  2.163675e+03 0.0 0.0 9.0
 2  1 1 2 103   0  6.669270e+02 -6.051717e+02 -2.004868e+03  2.197844e+03 0.0022 0.0 9.0
22  1 1 2   0   0 -6.669270e+02  6.051717e+02  3.191183e+03  3.315822e+03 0.0 0.0 9.0
#pdf 2 21 5.153832e-01 3.328731e-01 5000.0 6.226627e-02 2.104733e-01
</event>
<event>
4 7 1.0 5000.0 7.905138e-03 7.739137e-02
 2 -1 0 0 101   0  0.000000e+00  0.000000e+00  3.416672e+03  3.416672e+03 0.0 0.0 9.0
21 -1 0 0 103 101  0.000000e+00  0.000000e+00 -1.902850e+03  1.902850e+03 0.0 0.0 9.0
22  1 1 2   0   0 -1.994734e+03  1.290560e+03 -2.087062e+02  2.384967e+03 0.0 0.0 9.0
 2  1 1 2 103   0  1.994734e+03 -1.290560e+03  1.722528e+03  2.934555e+03 0.0022 0.0 9.0
#pdf 2 21 5.256419e-01 2.927462e-01 5000.0 5.720218e-02 2.581584e-01
</event>
<event>
4 7 1.0 5000.0 7.905138e-03 7.739137e-02
21 -1 0 0 103 101  0.000000e+00  0.000000e+00  1.620909e+03  1.620909e+03 0.0 0.0 9.0
 2 -1 0 0 101   0  0.000000e+00  0.000000e+00 -3.913451e+03  3.913451e+03 0.0 0.0 9.0
22  1 1 2   0   0 -2.915368e+02  2.304662e+03 -2.215395e+03  3.210052e+03 0.0 0.0 9.0
 2  1 1 2 103   0  2.915368e+02 -2.304662e+03 -7.714701e+01  2.324309e+03 0.0022 0.0 9.0
#pdf 21 2 2.493707e-01 6.020694e-01 5000.0 6.725447e-02 6.210417e-04
</event>
<event>
4 7 1.0 5000.0 7.905138e-03 7.739137e-02
 2 -1 0 0 101   0  0.000000e+00  0.000000e+00  3.650598e+03  3.650598e+03 0.0 0.0 9.0
21 -1 0 0 103 101  0.000000e+00  0.000000e+00 -1.750072e+03  1.750072e+03 0.0 0.0 9.0
22  1 1 2   0   0 -2.984651e+02  1.137329e+03 -1.440091e+03  1.859156e+03 0.0 0.0 9.0
 2  1 1 2 103   0  2.984651e+02 -1.137329e+03  3.340617e+03  3.541514e+03 0.0022 0.0 9.0
#pdf 2 21 5.616305e-01 2.692419e-01 5000.0 4.174845e-02 2.881763e-01
</event>
<event>
4 7 1.0 5000.0 7.905138e-03 7.739137e-02
 2 -1 0 0 101   0  0.000000e+00  0.000000e+00  1.875294e+03  1.875294e+03 0.0 0.0 9.0
21 -1 0 0 103 101  0.000000e+00  0.000000e+00 -3.276842e+03  3.276842e+03 0.0 0.0 9.0
 2  1 1 2 103   0  1.651245e+03  3.769011e+02  1.180240e+03  2.064372e+03 0.0022 0.0 9.0
22  1 1 2   0   0 -1.651245e+03 -3.769011e+02 -2.581787e+03  3.087765e+03 0.0 0.0 9.0
#pdf 2 21 2.885068e-01 5.041295e-01 5000.0 2.634771e-01 6.818612e-02
</event>
<event>
4 7 1.0 5000.0 7.905138e-03 7.739137e-02
 2 -1 0 0 101   0  0.000000e+00  0.000000e+00  2.898160e+03  2.898160e+03 0.0 0.0 9.0
21 -1 0 0 103 101  0.000000e+00  0.000000e+00 -2.279090e+03  2.279090e+03 0.0 0.0 9.0
 2  1 1 2 103   0  2.024188e+03 -1.434683e+03  9.848406e+02  2.669375e+03 0.0022 0.0 9.0
22  1 1 2   0   0 -2.024188e+03  1.434683e+03 -3.657703e+02  2.507875e+03 0.0 0.0 9.0
#pdf 2 21 4.458708e-01 3.506292e-01 5000.0 1.052509e-01 1.909960e-01
</event>
<event>
4 7 1.0 5000.0 7.905138e-03 7.739137e-02
21 -1 0 0 103 101  0.000000e+00  0.000000e+00  1.492777e+03  1.492777e+03 0.0 0.0 9.0
 2 -1 0 0 101   0  0.000000e+00  0.000000e+00 -4.125642e+03  4.125642e+03 0.0 0.0 9.0
22  1 1 2   0   0  1.541332e+03 -1.938803e+03 -1.141058e+03  2.727027e+03 0.0 0.0 9.0
 2  1 1 2 103   0 -1.541332e+03  1.938803e+03 -1.491808e+03  2.891393e+03 0.0022 0.0 9.0
#pdf 21 2 2.296580e-01 6.347142e-01 5000.0 8.600864e-02 3.614044e-04
</event>
<event>
4 7 1.0 5000.0 7.905138e-03 7.739137e-02
 2 -1 0 0 101   0  0.000000e+00  0.000000e+00  1.741138e+03  1.741138e+03 0.0 0.0 9.0
21 -1 0 0 103 101  0.000000e+00  0.000000e+00 -3.546620e+03  3.546620e+03 0.0 0.0 9.0
 2  1 1 2 103   0  5.551364e+02  1.255935e+03  1.300827e+03  1.891480e+03 0.0022 0.0 9.0
22  1 1 2   0   0 -5.551364e+02 -1.255935e+03 -3.106308e+03  3.396277e+03 0.0 0.0 9.0
#pdf 2 21 2.678674e-01 5.456338e-01 5000.0 2.899716e-01 4.817821e-02
</event>
<event>
4 7 1.0 5000.0 7.905138e-03 7.739137e-02
 2 -1 0 0 101   0  0.000000e+00  0.000000e+00  4.287396e+03  4.287396e+03 0.0 0.0 9.0
21 -1 0 0 103 101  0.000000e+00  0.000000e+00 -1.496531e+03  1.496531e+03 0.0 0.0 9.0
22  1 1 2   0   0  1.812800e+03 -1.282895e+03  2.786323e+03  3.563097e+03 0.0 0.0 9.0
 2  1 1 2 103   0 -1.812800e+03  1.282895e+03  4.541982e+00  2.220830e+03 0.0022 0.0 9.0
#pdf 2 21 6.595994e-01 2.302355e-01 5000.0 1.500038e-02 3.404064e-01
</event>
<event>
4 7 1.0 5000.0 7.905138e-03 7.739137e-02
21 -1 0 0 103 101  0.000000e+00  0.000000e+00  3.663620e+03  3.663620e+03 0.0 0.0 9.0
 2 -1 0 0 101   0  0.000000e+00  0.000000e+00 -1.688005e+03  1.688005e+03 0.0 0.0 9.0
 2  1 1 2 103   0 -4.892333e+02  1.216452e+03 -1.285873e+03  1.836457e+03 0.0022 0.0 9.0
22  1 1 2   0   0  4.892333e+02 -1.216452e+03  3.261488e+03  3.515168e+03 0.0 0.0 9.0
#pdf 21 2 5.636339e-01 2.596931e-01 5000.0 1.129784e-03 5.913482e-02
</event>
<event>
4 7 1.0 5000.0 7.905138e-03 7.739137e-02
 2 -1 0 0 101   0  0.000000e+00  0.000000e+00  2.213118e+03  2.213118e+03 0.0 0.0 9.0
21 -1 0 0 103 101  0.000000e+00  0.000000e+00 -2.791793e+03  2.791793e+03 0.0 0.0 9.0
 2  1 1 2 103   0 -1.406964e+03 -1.825441e+03 -1.226636e+03  2.610828e+03 0.0022 0.0 9.0
22  1 1 2   0   0  1.406964e+03  1.825441e+03  6.479610e+02  2.394084e+03 0.0 0.0 9.0
#pdf 2 21 3.404798e-01 4.295067e-01 5000.0 2.020054e-01 1.177212e-01
</event>
<event>
4 7 1.0 5000.0 7.905138e-03 7.739137e-02
 2 -1 0 0 101   0  0.000000e+00  0.000000e+00  4.780267e+03  4.780267e+03 0.0 0.0 9.0
21 -1 0 0 103 101  0.000000e+00  0.000000e+00 -1.254209e+03  1.254209e+03 0.0 0.0 9.0
22  1 1 2   0   0  1.016757e+03  2.209742e+03  1.417351e+03  2.815251e+03 0.0 0.0 9.0
 2  1 1 2 103   0 -1.016757e+03 -2.209742e+03  2.108707e+03  3.219224e+03 0.0022 0.0 9.0
#pdf 2 21 7.354257e-01 1.929552e-01 5000.0 5.352323e-03 3.917729e-01
</event>
<event>
4 7 1.0 5000.0 7.905138e-03 7.739137e-02
21 -1 0 0 103 101  0.000000e+00  0.000000e+00  1.450197e+03  1.450197e+03 0.0 0.0 9.0
 2 -1 0 0 101   0  0.000000e+00  0.000000e+00 -4.264816e+03  4.264816e+03 0.0 0.0 9.0
22  1 1 2   0   0  4.361223e+02 -2.443428e+03 -1.586353e+03  2.945685e+03 0.0 0.0 9.0
 2  1 1 2 103   0 -4.361223e+02  2.443428e+03 -1.228266e+03  2.769328e+03 0.0022 0.0 9.0
#pdf 21 2 2.231073e-01 6.561255e-01 5000.0 9.348132e-02 2.486869e-04
</event>
<event>
4 7 1.0 5000.0 7.905138e-03 7.739137e-02
 2 -1 0 0 101   0  0.000000e+00  0.000000e+00  1.741103e+03  1.741103e+03 0.0 0.0 9.0
21 -1 0 0 103 101  0.000000e+00  0.000000e+00 -3.505151e+03  3.505151e+03 0.0 0.0 9.0
 2  1 1 2 103   0 -1.776735e+03  1.002077e+03 -2.361696e+03  3.120665e+03 0.0022 0.0 9.0
22  1 1 2   0   0  1.776735e+03 -1.002077e+03  5.976476e+02  2.125589e+03 0.0 0.0 9.0
#pdf 2 21 2.678620e-01 5.392540e-01 5000.0 2.899786e-01 5.093067e-02
</event>
<event>
4 7 1.0 5000.0 7.905138e-03 7.739137e-02
21 -1 0 0 103 101  0.000000e+00  0.000000e+00  3.288902e+03  3.288902e+03 0.0 0.0 9.0
 2 -1 0 0 101   0  0.000000e+00  0.000000e+00 -1.894054e+03  1.894054e+03 0.0 0.0 9.0
22  1 1 2   0   0 -3.392415e+02 -6.437432e+02 -1.781472e+03  1.924353e+03 0.0 0.0 9.0
 2  1 1 2 103   0  3.392415e+02  6.437432e+02  3.176319e+03  3.258603e+03 0.0022 0.0 9.0
#pdf 21 2 5.059849e-01 2.913930e-01 5000.0 2.594092e-03 4.005742e-02
</event>
<event>
4 7 1.0 5000.0 7.905138e-03 7.739137e-02
 2 -1 0 0 101   0  0.000000e+00  0.000000e+00  3.083152e+03  3.083152e+03 0.0 0.0 9.0
21 -1 0 0 103 101  0.000000e+00  0.000000e+00 -2.039374e+03  2.039374e+03 0.0 0.0 9.0
 2  1 1 2 103   0 -1.090852e+03  4.286899e+02 -1.742361e+03  2.099894e+03 0.0022 0.0 9.0
22  1 1 2   0   0  1.090852e+03 -4.286899e+02  2.786138e+03  3.022631e+03 0.0 0.0 9.0
#pdf 2 21 4.743310e-01 3.137499e-01 5000.0 8.576173e-02 2.325973e-01
</event>
<event>
4 7 1.0 5000.0 7.905138e-03 7.739137e-02
 2 -1 0 0 101   0  0.000000e+00  0.000000e+00  2.681898e+03  2.681898e+03 0.0 0.0 9.0
21 -1 0 0 103 101  0.000000e+00  0.000000e+00 -2.327236e+03  2.327236e+03 0.0 0.0 9.0
 2  1 1 2 103   0 -2.462326e+03 -3.680200e+02  3.850294e+02  2.519273e+03 0.0022 0.0 9.0
22  1 1 2   0   0  2.462326e+03  3.680200e+02 -3.036812e+01  2.489861e+03 0.0 0.0 9.0
#pdf 2 21 4.125996e-01 3.580364e-01 5000.0 1.315853e-01 1.831870e-01
</event>
<event>
4 7 1.0 5000.0 7.905138e-03 7.739137e-02
 2 -1 0 0 101   0  0.000000e+00  0.000000e+00  2.399215e+03  2.399215e+03 0.0 0.0 9.0
21 -1 0 0 103 101  0.000000e+00  0.000000e+00 -2.592213e+03  2.592213e+03 0.0 0.0 9.0
 2  1 1 2 103   0 -1.836732e+03  1.277072e+01 -1.784630e+03  2.560987e+03 0.0022 0.0 9.0
22  1 1 2   0   0  1.836732e+03 -1.277072e+01  1.591632e+03  2.430441e+03 0.0 0.0 9.0
#pdf 2 21 3.691100e-01 3.988020e-01 5000.0 1.718591e-01 1.436513e-01
</event>
<event>
4 7 1.0 5000.0 7.905138e-03 7.739137e-02
21 -1 0 0 103 101  0.000000e+00  0.000000e+00  1.567854e+03  1.567854e+03 0.0 0.0 9.0
 2 -1 0 0 101   0  0.000000e+00  0.000000e+00 -3.899232e+03  3.899232e+03 0.0 0.0 9.0
 2  1 1 2 103   0  7.944927e+02  1.308954e+03 -3.311976e+03  3.648803e+03 0.0022 0.0 9.0
22  1 1 2   0   0 -7.944927e+02 -1.308954e+03  9.805980e+02  1.818283e+03 0.0 0.0 9.0
#pdf 21 2 2.412083e-01 5.998818e-01 5000.0 7.447777e-02 6.430798e-04
</event>
<event>
4 7 1.0 5000.0 7.905138e-03 7.739137e-02
21 -1 0 0 103 101  0.000000e+00  0.000000e+00  2.588427e+03  2.588427e+03 0.0 0.0 9.0
 2 -1 0 0 101   0  0.000000e+00  0.000000e+00 -2.421626e+03  2.421626e+03 0.0 0.0 9.0
 2  1 1 2 103   0  2.075865e+03  4.671768e+02 -1.236699e+03  2.461076e+03 0.0022 0.0 9.0
22  1 1 2   0   0 -2.075865e+03 -4.671768e+02  1.403499e+03  2.548976e+03 0.0 0.0 9.0
#pdf 21 2 3.982195e-01 3.725578e-01 5000.0 1.071703e-02 1.476583e-02
</event>
<event>
4 7 1.0 5000.0 7.905138e-03 7.739137e-02
 2 -1 0 0 101   0  0.000000e+00  0.000000e+00  2.362477e+03  2.362477e+03 0.0 0.0 9.0
21 -1 0 0 103 101  0.000000e+00  0.000000e+00 -2.697153e+03  2.697153e+03 0.0 0.0 9.0
 2  1 1 2 103   0 -8.253596e+02 -7.013248e+02 -2.452450e+03  2.680967e+03 0.0022 0.0 9.0
22  1 1 2   0   0  8.253596e+02  7.013248e+02  2.117774e+03  2.378664e+03 0.0 0.0 9.0
#pdf 2 21 3.634581e-01 4.149466e-01 5000.0 1.775902e-01 1.295998e-01
</event>
<event>
4 7 1.0 5000.0 7.905138e-03 7.739137e-02
21 -1 0 0 103 101  0.000000e+00  0.000000e+00  2.376548e+03  2.376548e+03 0.0 0.0 9.0
 2 -1 0 0 101   0  0.000000e+00  0.000000e+00 -2.616522e+03  2.616522e+03 0.0 0.0 9.0
 2  1 1 2 103   0 -2.123318e+03  4.208174e+02  1.119478e+03  2.436965e+03 0.0022 0.0 9.0
22  1 1 2   0   0  2.123318e+03 -4.208174e+02 -1.359452e+03  2.556106e+03 0.0 0.0 9.0
#pdf 21 2 3.656228e-01 4.025419e-01 5000.0 1.609562e-02 1.014967e-02
</event>
<event>
4 7 1.0 5000.0 7.905138e-03 7.739137e-02
 2 -1 0 0 101   0  0.000000e+00  0.000000e+00  4.090917e+03  4.090917e+03 0.0 0.0 9.0
21 -1 0 0 103 101  0.000000e+00  0.000000e+00 -1.502306e+03  1.502306e+03 0.0 0.0 9.0
22  1 1 2   0   0 -2.405732e+03 -5.978300e+02  1.261113e+03  2.781250e+03 0.0 0.0 9.0
 2  1 1 2 103   0  2.405732e+03  5.978300e+02  1.327498e+03  2.811974e+03 0.0022 0.0 9.0
#pdf 2 21 6.293719e-01 2.311241e-01 5000.0 2.119249e-02 3.391881e-01
</event>
<event>
4 7 1.0 5000.0 7.905138e-03 7.739137e-02
 2 -1 0 0 101   0  0.000000e+00  0.000000e+00  1.747880e+03  1.747880e+03 0.0 0.0 9.0
21 -1 0 0 103 101  0.000000e+00  0.000000e+00 -3.616947e+03  3.616947e+03 0.0 0.0 9.0
22  1 1 2   0   0  5.152934e+02 -1.746959e+03  9.147007e+02  2.038154e+03 0.0 0.0 9.0
 2  1 1 2 103   0 -5.152934e+02  1.746959e+03 -2.783768e+03  3.326673e+03 0.0022 0.0 9.0
#pdf 2 21 2.689046e-01 5.564534e-01 5000.0 2.886165e-01 4.375572e-02
</event>
<event>
4 7 1.0 5000.0 7.905138e-03 7.739137e-02
 2 -1 0 0 101   0  0.000000e+00  0.000000e+00  1.967670e+03  1.967670e+03 0.0 0.0 9.0
21 -1 0 0 103 101  0.000000e+00  0.000000e+00 -3.170838e+03  3.170838e+03 0.0 0.0 9.0
22  1 1 2   0   0  4.772391e+02 -2.438316e+03 -3.372901e+02  2.507370e+03 0.0 0.0 9.0
 2  1 1 2 103   0 -4.772391e+02  2.438316e+03 -8.658771e+02  2.631138e+03 0.0022 0.0 9.0
#pdf 2 21 3.027185e-01 4.878212e-01 5000.0 2.458701e-01 7.745461e-02
</event>
<event>
4 7 1.0 5000.0 7.905138e-03 7.739137e-02
21 -1 0 0 103 101  0.000000e+00  0.000000e+00  1.859202e+03  1.859202e+03 0.0 0.0 9.0
 2 -1 0 0 101   0  0.000000e+00  0.000000e+00 -3.253115e+03  3.253115e+03 0.0 0.0 9.0
22  1 1 2   0   0 -2.223433e+03 -9.077460e+02 -1.464376e+02  2.406055e+03 0.0 0.0 9.0
 2  1 1 2 103   0  2.223433e+03  9.077460e+02 -1.247476e+03  2.706262e+03 0.0022 0.0 9.0
#pdf 21 2 2.860310e-01 5.004793e-01 5000.0 4.274523e-02 2.799692e-03
</event>
<event>
4 7 1.0 5000.0 7.905138e-03 7.739137e-02
21 -1 0 0 103 101  0.000000e+00  0.000000e+00  2.049872e+03  2.049872e+03 0.0 0.0 9.0
 2 -1 0 0 101   0  0.000000e+00  0.000000e+00 -3.151480e+03  3.151480e+03 0.0 0.0 9.0
22  1 1 2   0   0  1.027739e+03 -1.162062e+03  1.509258e+03  2.164370e+03 0.0 0.0 9.0
 2  1 1 2 103   0 -1.027739e+03  1.162062e+03 -2.610866e+03  3.036982e+03 0.0022 0.0 9.0
#pdf 21 2 3.153649e-01 4.848430e-01 5000.0 2.984640e-02 3.466828e-03
</event>
<event>
4 7 1.0 5000.0 7.905138e-03 7.739137e-02
 2 -1 0 0 101   0  0.000000e+00  0.000000e+00  3.481421e+03  3.481421e+03 0.0 0.0 9.0
21 -1 0 0 103 101  0.000000e+00  0.000000e+00 -1.819098e+03  1.819098e+03 0.0 0.0 9.0
 2  1 1 2 103   0 -2.375147e+03 -1.221648e+01  1.706954e+03  2.924921e+03 0.0022 0.0 9.0
22  1 1 2   0   0  2.375147e+03  1.221648e+01 -4.463074e+01  2.375598e+03 0.0 0.0 9.0
#pdf 2 21 5.356033e-01 2.798613e-01 5000.0 5.256328e-02 2.744504e-01
</event>
<event>
4 7 1.0 5000.0 7.905138e-03 7.739137e-02
 2 -1 0 0 101   0  0.000000e+00  0.000000e+00  3.590253e+03  3.590253e+03 0.0 0.0 9.0
21 -1 0 0 103 101  0.000000e+00  0.000000e+00 -1.894356e+03  1.894356e+03 0.0 0.0 9.0
22  1 1 2   0   0  1.381824e+03  2.143658e+03  1.420537e+03  2.919355e+03 0.0 0.0 9.0
 2  1 1 2 103   0 -1.381824e+03 -2.143658e+03  2.753597e+02  2.565254e+03 0.0022 0.0 9.0
#pdf 2 21 5.523466e-01 2.914395e-01 5000.0 4.538387e-02 2.597921e-01
</event>
<event>
4 7 1.0 5000.0 7.905138e-03 7.739137e-02
 2 -1 0 0 101   0  0.000000e+00  0.000000e+00  2.742593e+03  2.742593e+03 0.0 0.0 9.0
21 -1 0 0 103 101  0.000000e+00  0.000000e+00 -2.219817e+03  2.219817e+03 0.0 0.0 9.0
 2  1 1 2 103   0 -2.131399e+03 -8.601918e+02  1.163773e+03  2.576268e+03 0.0022 0.0 9.0
22  1 1 2   0   0  2.131399e+03  8.601918e+02 -6.409967e+02  2.386141e+03 0.0 0.0 9.0
#pdf 2 21 4.219373e-01 3.415103e-01 5000.0 1.237998e-01 2.008722e-01
</event>
<event>
4 7 1.0 5000.0 7.905138e-03 7.739137e-02
 2 -1 0 0 101   0  0.000000e+00  0.000000e+00  1.645396e+03  1.645396e+03 0.0 0.0 9.0
21 -1 0 0 103 101  0.000000e+00  0.000000e+00 -3.877031e+03  3.877031e+03 0.0 0.0 9.0
 2  1 1 2 103   0 -1.966998e+03  1.462121e+03 -1.782939e+03  3.030800e+03 0.0022 0.0 9.0
22  1 1 2   0   0  1.966998e+03 -1.462121e+03 -4.486972e+02  2.491627e+03 0.0 0.0 9.0
#pdf 2 21 2.531378e-01 5.964664e-01 5000.0 3.093979e-01 2.990483e-02
</event>
<event>
4 7 1.0 5000.0 7.905138e-03 7.739137e-02
 2 -1 0 0 101   0  0.000000e+00  0.000000e+00  3.828251e+03  3.828251e+03 0.0 0.0 9.0
21 -1 0 0 103 101  0.000000e+00  0.000000e+00 -1.211183e+03  1.211183e+03 0.0 0.0 9.0
22  1 1 2   0   0  9.623999e+02  1.127012e+03 -5.194489e+02  1.570413e+03 0.0 0.0 9.0
 2  1 1 2 103   0 -9.623999e+02 -1.127012e+03  3.136517e+03  3.469021e+03 0.0022 0.0 9.0
#pdf 2 21 5.889617e-01 1.863358e-01 5000.0 3.221149e-02 4.007960e-01
</event>
<event>
4 7 1.0 5000.0 7.905138e-03 7.739137e-02
 2 -1 0 0 101   0  0.000000e+00  0.000000e+00  1.997045e+03  1.997045e+03 0.0 0.0 9.0
21 -1 0 0 103 101  0.000000e+00  0.000000e+00 -3.157728e+03  3.157728e+03 0.0 0.0 9.0
22  1 1 2   0   0 -2.776198e+02 -2.484175e+03 -3.333167e+02  2.521765e+03 0.0 0.0 9.0
 2  1 1 2 103   0  2.776198e+02  2.484175e+03 -8.273662e+02  2.633008e+03 0.0022 0.0 9.0
#pdf 2 21 3.072377e-01 4.858043e-01 5000.0 2.403838e-01 7.865906e-02
</event>
<event>
4 7 1.0 5000.0 7.905138e-03 7.739137e-02
21 -1 0 0 103 101  0.000000e+00  0.000000e+00  3.934979e+03  3.934979e+03 0.0 0.0 9.0
 2 -1 0 0 101   0  0.000000e+00  0.000000e+00 -1.589186e+03  1.589186e+03 0.0 0.0 9.0
22  1 1 2   0   0  2.030203e+03  1.174391e+03  2.131038e+03  3.168950e+03 0.0 0.0 9.0
 2  1 1 2 103   0 -2.030203e+03 -1.174391e+03  2.147549e+02  2.355215e+03 0.0022 0.0 9.0
#pdf 21 2 6.053814e-01 2.444901e-01 5000.0 5.888813e-04 7.142864e-02
</event>
<event>
4 7 1.0 5000.0 7.905138e-03 7.739137e-02
 2 -1 0 0 101   0  0.000000e+00  0.000000e+00  1.284053e+03  1.284053e+03 0.0 0.0 9.0
21 -1 0 0 103 101  0.000000e+00  0.000000e+00 -4.501295e+03  4.501295e+03 0.0 0.0 9.0
22  1 1 2   0   0  1.568256e+03 -1.091596e+03 -3.364183e+03  3.868945e+03 0.0 0.0 9.0
 2  1 1 2 103   0 -1.568256e+03  1.091596e+03  1.469403e+02  1.916403e+03 0.0022 0.0 9.0
#pdf 2 21 1.975466e-01 6.925070e-01 5000.0 3.854234e-01 9.904132e-03
</event>
<event>
4 7 1.0 5000.0 7.905138e-03 7.739137e-02
21 -1 0 0 103 101  0.000000e+00  0.000000e+00  2.172333e+03  2.172333e+03 0.0 0.0 9.0
 2 -1 0 0 101   0  0.000000e+00  0.000000e+00 -2.935422e+03  2.935422e+03 0.0 0.0 9.0
 2  1 1 2 103   0  1.110970e+03 -4.426281e+02 -2.630870e+03  2.889922e+03 0.0022 0.0 9.0
22  1 1 2   0   0 -1.110970e+03  4.426281e+02  1.867781e+03  2.217832e+03 0.0 0.0 9.0
#pdf 21 2 3.342050e-01 4.516034e-01 5000.0 2.369206e-02 5.403961e-03
</event>
<event>
4 7 1.0 5000.0 7.905138e-03 7.739137e-02
 2 -1 0 0 101   0  0.000000e+00  0.000000e+00  1.919062e+03  1.919062e+03 0.0 0.0 9.0
21 -1 0 0 103 101  0.000000e+00  0.000000e+00 -3.230625e+03  3.230625e+03 0.0 0.0 9.0
 2  1 1 2 103   0  1.444710e+03  1.637305e+02 -2.746042e+03  3.107208e+03 0.0022 0.0 9.0
22  1 1 2   0   0 -1.444710e+03 -1.637305e+02  1.434479e+03  2.042480e+03 0.0 0.0 9.0
#pdf 2 21 2.952403e-01 4.970193e-01 5000.0 2.550561e-01 7.212447e-02
</event>
<event>
4 7 1.0 5000.0 7.905138e-03 7.739137e-02
21 -1 0 0 103 101  0.000000e+00  0.000000e+00  1.332933e+03  1.332933e+03 0.0 0.0 9.0
 2 -1 0 0 101   0  0.000000e+00  0.000000e+00 -4.116875e+03  4.116875e+03 0.0 0.0 9.0
 2  1 1 2 103   0  2.330460e+03  2.367330e+02 -1.416206e+03  2.737285e+03 0.0022 0.0 9.0
22  1 1 2   0   0 -2.330460e+03 -2.367330e+02 -1.367736e+03  2.712524e+03 0.0 0.0 9.0
#pdf 21 2 2.050667e-01 6.333654e-01 5000.0 1.177332e-01 3.698142e-04
</event>
<event>
4 7 1.0 5000.0 7.905138e-03 7.739137e-02
 2 -1 0 0 101   0  0.000000e+00  0.000000e+00  1.474182e+03  1.474182e+03 0.0 0.0 9.0
21 -1 0 0 103 101  0.000000e+00  0.000000e+00 -4.449151e+03  4.449151e+03 0.0 0.0 9.0
 2  1 1 2 103   0  1.806344e+03 -1.800605e+03 -1.219242e+03  2.826943e+03 0.0022 0.0 9.0
22  1 1 2   0   0 -1.806344e+03  1.800605e+03 -1.755727e+03  3.096390e+03 0.0 0.0 9.0
#pdf 2 21 2.267973e-01 6.844848e-01 5000.0 3.451132e-01 1.100277e-02
</event>
<event>
4 7 1.0 5000.0 7.905138e-03 7.739137e-02
21 -1 0 0 103 101  0.000000e+00  0.000000e+00  2.864359e+03  2.864359e+03 0.0 0.0 9.0
 2 -1 0 0 101   0  0.000000e+00  0.000000e+00 -2.159841e+03  2.159841e+03 0.0 0.0 9.0
22  1 1 2   0   0 -1.234904e+03  4.670475e+02 -1.776723e+03  2.213564e+03 0.0 0.0 9.0
 2  1 1 2 103   0  1.234904e+03 -4.670475e+02  2.481241e+03  2.810637e+03 0.0022 0.0 9.0
#pdf 21 2 4.406707e-01 3.322833e-01 5000.0 6.235835e-03 2.425787e-02
</event>
<event>
4 7 1.0 5000.0 7.905138e-03 7.739137e-02
21 -1 0 0 103 101  0.000000e+00  0.000000e+00  2.799775e+03  2.799775e+03 0.0 0.0 9.0
 2 -1 0 0 101   0  0.000000e+00  0.000000e+00 -2.621104e+03  2.621104e+03 0.0 0.0 9.0
 2  1 1 2 103   0 -1.480122e+03  2.012779e+03  1.137025e+03  2.744971e+03 0.0022 0.0 9.0
22  1 1 2   0   0  1.480122e+03 -2.012779e+03 -9.583548e+02  2.675908e+03 0.0 0.0 9.0
#pdf 21 2 4.307346e-01 4.032468e-01 5000.0 7.084132e-03 1.005984e-02
</event>
<event>
4 7 1.0 5000.0 7.905138e-03 7.739137e-02
 2 -1 0 0 101   0  0.000000e+00  0.000000e+00  3.350205e+03  3.350205e+03 0.0 0.0 9.0
21 -1 0 0 103 101  0.000000e+00  0.000000e+00 -1.823850e+03  1.823850e+03 0.0 0.0 9.0
22  1 1 2   0   0 -1.232758e+03 -7.044407e+02  2.880870e+03  3.211750e+03 0.0 0.0 9.0
 2  1 1 2 103   0  1.232758e+03  7.044407e+02 -1.354515e+03  1.962305e+03 0.0022 0.0 9.0
#pdf 2 21 5.154161e-01 2.805923e-01 5000.0 6.224950e-02 2.735166e-01
</event>
<event>
4 7 1.0 5000.0 7.905138e-03 7.739137e-02
21 -1 0 0 103 101  0.000000e+00  0.000000e+00  1.201032e+03  1.201032e+03 0.0 0.0 9.0
 2 -1 0 0 101   0  0.000000e+00  0.000000e+00 -3.636622e+03  3.636622e+03 0.0 0.0 9.0
22  1 1 2   0   0  1.540787e+03 -1.346895e+03 -1.708213e+03  2.665735e+03 0.0 0.0 9.0
 2  1 1 2 103   0 -1.540787e+03  1.346895e+03 -7.273774e+02  2.171919e+03 0.0022 0.0 9.0
#pdf 21 2 1.847741e-01 5.594804e-01 5000.0 1.539374e-01 1.202579e-03
</event>
<event>
4 7 1.0 5000.0 7.905138e-03 7.739137e-02
 2 -1 0 0 101   0  0.000000e+00  0.000000e+00  3.812456e+03  3.812456e+03 0.0 0.0 9.0
21 -1 0 0 103 101  0.000000e+00  0.000000e+00 -1.614808e+03  1.614808e+03 0.0 0.0 9.0
 2  1 1 2 103   0  2.053003e+03 -1.263785e+03  1.740660e+03  2.973529e+03 0.0022 0.0 9.0
22  1 1 2   0   0 -2.053003e+03  1.263785e+03  4.569879e+02  2.453735e+03 0.0 0.0 9.0
#pdf 2 21 5.865317e-01 2.484319e-01 5000.0 3.298611e-02 3.157136e-01
</event>
<event>
4 7 1.0 5000.0 7.905138e-03 7.739137e-02
21 -1 0 0 103 101  0.000000e+00  0.000000e+00  2.471404e+03  2.471404e+03 0.0 0.0 9.0
 2 -1 0 0 101   0  0.000000e+00  0.000000e+00 -2.414872e+03  2.414872e+03 0.0 0.0 9.0
 2  1 1 2 103   0  2.003660e+03  1.158569e+03  8.101051e+02  2.452184e+03 0.0022 0.0 9.0
22  1 1 2   0   0 -2.003660e+03 -1.158569e+03 -7.535727e+02  2.434092e+03 0.0 0.0 9.0
#pdf 21 2 3.802160e-01 3.715187e-01 5000.0 1.343954e-02 1.495316e-02
</event>
<event>
4 7 1.0 5000.0 7.905138e-03 7.739137e-02
 2 -1 0 0 101   0  0.000000e+00  0.000000e+00  3.591760e+03  3.591760e+03 0.0 0.0 9.0
21 -1 0 0 103 101  0.000000e+00  0.000000e+00 -1.716530e+03  1.716530e+03 0.0 0.0 9.0
22  1 1 2   0   0  1.816182e+02  6.008797e+02 -1.630314e+03  1.746987e+03 0.0 0.0 9.0
 2  1 1 2 103   0 -1.816182e+02 -6.008797e+02  3.505544e+03  3.561303e+03 0.0022 0.0 9.0
#pdf 2 21 5.525785e-01 2.640816e-01 5000.0 4.529022e-02 2.949331e-01
</event>
<event>
4 7 1.0 5000.0 7.905138e-03 7.739137e-02
21 -1 0 0 103 101  0.000000e+00  0.000000e+00  1.428373e+03  1.428373e+03 0.0 0.0 9.0
 2 -1 0 0 101   0  0.000000e+00  0.000000e+00 -4.379623e+03  4.379623e+03 0.0 0.0 9.0
 2  1 1 2 103   0 -1.784050e+03 -1.122583e+03  8.759825e+01  2.109668e+03 0.0022 0.0 9.0
22  1 1 2   0   0  1.784050e+03  1.122583e+03 -3.038848e+03  3.698327e+03 0.0 0.0 9.0
#pdf 21 2 2.197497e-01 6.737881e-01 5000.0 9.758909e-02 1.797091e-04
</event>
<event>
4 7 1.0 5000.0 7.905138e-03 7.739137e-02
21 -1 0 0 103 101  0.000000e+00  0.000000e+00  3.805574e+03  3.805574e+03 0.0 0.0 9.0
 2 -1 0 0 101   0  0.000000e+00  0.000000e+00 -1.633985e+03  1.633985e+03 0.0 0.0 9.0
 2  1 1 2 103   0 -1.728106e+03 -8.249573e+02  2.827939e+03  3.415281e+03 0.0022 0.0 9.0
22  1 1 2   0   0  1.728106e+03  8.249573e+02 -6.563502e+02  2.024278e+03 0.0 0.0 9.0
#pdf 21 2 5.854729e-01 2.513823e-01 5000.0 8.074094e-04 6.560774e-02
</event>
<event>
4 7 1.0 5000.0 7.905138e-03 7.739137e-02
 2 -1 0 0 101   0  0.000000e+00  0.000000e+00  2.332508e+03  2.332508e+03 0.0 0.0 9.0
21 -1 0 0 103 101  0.000000e+00  0.000000e+00 -2.611840e+03  2.611840e+03 0.0 0.0 9.0
22  1 1 2   0   0  3.567303e+02 -2.320984e+03  6.217576e+02  2.429157e+03 0.0 0.0 9.0
 2  1 1 2 103   0 -3.567303e+02  2.320984e+03 -9.010893e+02  2.515190e+03 0.0022 0.0 9.0
#pdf 2 21 3.588474e-01 4.018215e-01 5000.0 1.823436e-01 1.409514e-01
</event>
<event>
4 7 1.0 5000.0 7.905138e-03 7.739137e-02
21 -1 0 0 103 101  0.000000e+00  0.000000e+00  3.964527e+03  3.964527e+03 0.0 0.0 9.0
 2 -1 0 0 101   0  0.000000e+00  0.000000e+00 -1.531334e+03  1.531334e+03 0.0 0.0 9.0
22  1 1 2   0   0  1.595661e+03  1.480741e+03 -7.068721e+01  2.178009e+03 0.0 0.0 9.0
 2  1 1 2 103   0 -1.595661e+03 -1.480741e+03  2.503880e+03  3.317852e+03 0.0022 0.0 9.0
#pdf 21 2 6.099273e-01 2.355899e-01 5000.0 5.468500e-04 7.988440e-02
</event>
<event>
4 7 1.0 5000.0 7.905138e-03 7.739137e-02
 2 -1 0 0 101   0  0.000000e+00  0.000000e+00  1.645754e+03  1.645754e+03 0.0 0.0 9.0
21 -1 0 0 103 101  0.000000e+00  0.000000e+00 -3.999965e+03  3.999965e+03 0.0 0.0 9.0
 2  1 1 2 103   0  1.599774e+03 -1.021872e+03  7.219922e+02  2.030954e+03 0.0022 0.0 9.0
22  1 1 2   0   0 -1.599774e+03  1.021872e+03 -3.076203e+03  3.614765e+03 0.0 0.0 9.0
#pdf 2 21 2.531929e-01 6.153792e-01 5000.0 3.093244e-01 2.463156e-02
</event>
<event>
4 7 1.0 5000.0 7.905138e-03 7.739137e-02
21 -1 0 0 103 101  0.000000e+00  0.000000e+00  2.539680e+03  2.539680e+03 0.0 0.0 9.0
 2 -1 0 0 101   0  0.000000e+00  0.000000e+00 -2.480272e+03  2.480272e+03 0.0 0.0 9.0
 2  1 1 2 103   0  1.845906e+03  1.692607e+03  1.934528e+02  2.511914e+03 0.0022 0.0 9.0
22  1 1 2   0   0 -1.845906e+03 -1.692607e+03 -1.340443e+02  2.508038e+03 0.0 0.0 9.0
#pdf 21 2 3.907200e-01 3.815803e-01 5000.0 1.177626e-02 1.321237e-02
</event>
<event>
4 7 1.0 5000.0 7.905138e-03 7.739137e-02
 2 -1 0 0 101   0  0.000000e+00  0.000000e+00  2.106879e+03  2.106879e+03 0.0 0.0 9.0
21 -1 0 0 103 101  0.000000e+00  0.000000e+00 -2.845049e+03  2.845049e+03 0.0 0.0 9.0
22  1 1 2   0   0 -4.290488e+02  2.491638e+02  2.055506e+03  2.114538e+03 0.0 0.0 9.0
 2  1 1 2 103   0  4.290488e+02 -2.491638e+02 -2.793676e+03  2.837391e+03 0.0022 0.0 9.0
#pdf 2 21 3.241353e-01 4.376999e-01 5000.0 2.204458e-01 1.113785e-01
</event>
<event>
4 7 1.0 5000.0 7.905138e-03 7.739137e-02
21 -1 0 0 103 101  0.000000e+00  0.000000e+00  2.429692e+03  2.429692e+03 0.0 0.0 9.0
 2 -1 0 0 101   0  0.000000e+00  0.000000e+00 -2.292608e+03  2.292608e+03 0.0 0.0 9.0
 2  1 1 2 103   0 -2.250996e+03 -7.025254e+02  1.676126e+02  2.364026e+03 0.0022 0.0 9.0
22  1 1 2   0   0  2.250996e+03  7.025254e+02 -3.052920e+01  2.358274e+03 0.0 0.0 9.0
#pdf 21 2 3.737987e-01 3.527090e-01 5000.0 1.454560e-02 1.887624e-02
</event>
<event>
4 7 1.0 5000.0 7.905138e-03 7.739137e-02
21 -1 0 0 103 101  0.000000e+00  0.000000e+00  1.938055e+03  1.938055e+03 0.0 0.0 9.0
 2 -1 0 0 101   0  0.000000e+00  0.000000e+00 -3.042903e+03  3.042903e+03 0.0 0.0 9.0
 2  1 1 2 103   0  8.476062e+02  1.712609e+03  9.844770e+02  2.149572e+03 0.0022 0.0 9.0
22  1 1 2   0   0 -8.476062e+02 -1.712609e+03 -2.089325e+03  2.831386e+03 0.0 0.0 9.0
#pdf 21 2 2.981623e-01 4.681390e-01 5000.0 3.685731e-02 4.340990e-03
</event>
<event>
4 7 1.0 5000.0 7.905138e-03 7.739137e-02
 2 -1 0 0 101   0  0.000000e+00  0.000000e+00  1.856172e+03  1.856172e+03 0.0 0.0 9.0
21 -1 0 0 103 101  0.000000e+00  0.000000e+00 -3.327050e+03  3.327050e+03 0.0 0.0 9.0
22  1 1 2   0   0  1.121769e+02 -1.705268e+03 -2.616964e+03  3.125544e+03 0.0 0.0 9.0
 2  1 1 2 103   0 -1.121769e+02  1.705268e+03  1.146087e+03  2.057678e+03 0.0022 0.0 9.0
#pdf 2 21 2.855649e-01 5.118539e-01 5000.0 2.671954e-01 6.408194e-02
</event>
<event>
4 7 1.0 5000.0 7.905138e-03 7.739137e-02
21 -1 0 0 103 101  0.000000e+00  0.000000e+00  1.326684e+03  1.326684e+03 0.0 0.0 9.0
 2 -1 0 0 101   0  0.000000e+00  0.000000e+00 -3.822025e+03  3.822025e+03 0.0 0.0 9.0
 2  1 1 2 103   0  1.220977e+03  1.837818e+03 -7.335187e+02  2.325169e+03 0.0022 0.0 9.0
22  1 1 2   0   0 -1.220977e+03 -1.837818e+03 -1.761823e+03  2.823540e+03 0.0 0.0 9.0
#pdf 21 2 2.041052e-01 5.880039e-01 5000.0 1.192220e-01 7.760972e-04
</event>
<event>
4 7 1.0 5000.0 7.905138e-03 7.739137e-02
21 -1 0 0 103 101  0.000000e+00  0.000000e+00  1.160335e+03  1.160335e+03 0.0 0.0 9.0
 2 -1 0 0 101   0  0.000000e+00  0.000000e+00 -5.260875e+03  5.260875e+03 0.0 0.0 9.0
 2  1 1 2 103   0  1.977910e+03  1.460134e+03 -1.731285e+03  3.006903e+03 0.0022 0.0 9.0
22  1 1 2   0   0 -1.977910e+03 -1.460134e+03 -2.369255e+03  3.414307e+03 0.0 0.0 9.0
#pdf 21 2 1.785131e-01 8.093654e-01 5000.0 1.674016e-01 7.781554e-06
</event>
<event>
4 7 1.0 5000.0 7.905138e-03 7.739137e-02
 2 -1 0 0 101   0  0.000000e+00  0.000000e+00  2.032785e+03  2.032785e+03 0.0 0.0 9.0
21 -1 0 0 103 101  0.000000e+00  0.000000e+00 -2.439955e+03  2.439955e+03 0.0 0.0 9.0
22  1 1 2   0   0 -1.015740e+02 -1.365079e+03 -1.967654e+03  2.396960e+03 0.0 0.0 9.0
 2  1 1 2 103   0  1.015740e+02  1.365079e+03  1.560483e+03  2.075780e+03 0.0022 0.0 9.0
#pdf 2 21 3.127361e-01 3.753778e-01 5000.0 2.338004e-01 1.656522e-01
</event>
<event>
4 7 1.0 5000.0 7.905138e-03 7.739137e-02
21 -1 0 0 103 101  0.000000e+00  0.000000e+00  4.080363e+03  4.080363e+03 0.0 0.0 9.0
 2 -1 0 0 101   0  0.000000e+00  0.000000e+00 -1.567513e+03  1.567513e+03 0.0 0.0 9.0
 2  1 1 2 103   0  1.246381e+03 -7.940061e+01  3.712008e+03  3.916475e+03 0.0022 0.0 9.0
22  1 1 2   0   0 -1.246381e+03  7.940061e+01 -1.199159e+03  1.731402e+03 0.0 0.0 9.0
#pdf 21 2 6.277482e-01 2.411559e-01 5000.0 4.068858e-04 7.452698e-02
</event>
<event>
4 7 1.0 5000.0 7.905138e-03 7.739137e-02
 2 -1 0 0 101   0  0.000000e+00  0.000000e+00  3.329721e+03  3.329721e+03 0.0 0.0 9.0
21 -1 0 0 103 101  0.000000e+00  0.000000e+00 -1.871064e+03  1.871064e+03 0.0 0.0 9.0
22  1 1 2   0   0  2.155331e+03 -3.973948e+02  1.973739e+03  2.949411e+03 0.0 0.0 9.0
 2  1 1 2 103   0 -2.155331e+03  3.973948e+02 -5.150830e+02  2.251374e+03 0.0022 0.0 9.0
#pdf 2 21 5.122647e-01 2.878561e-01 5000.0 6.386866e-02 2.642979e-01
</event>
<event>
4 7 1.0 5000.0 7.905138e-03 7.739137e-02
 2 -1 0 0 101   0  0.000000e+00  0.000000e+00  1.228814e+03  1.228814e+03 0.0 0.0 9.0
21 -1 0 0 103 101  0.000000e+00  0.000000e+00 -5.177289e+03  5.177289e+03 0.0 0.0 9.0
 2  1 1 2 103   0  1.407255e+03  1.980811e+03 -2.833600e+03  3.732729e+03 0.0022 0.0 9.0
22  1 1 2   0   0 -1.407255e+03 -1.980811e+03 -1.114875e+03  2.673373e+03 0.0 0.0 9.0
#pdf 2 21 1.890483e-01 7.965059e-01 5000.0 3.971032e-01 1.826112e-03
</event>
<event>
4 7 1.0 5000.0 7.905138e-03 7.739137e-02
21 -1 0 0 103 101  0.000000e+00  0.000000e+00  2.755471e+03  2.755471e+03 0.0 0.0 9.0
 2 -1 0 0 101   0  0.000000e+00  0.000000e+00 -2.451309e+03  2.451309e+03 0.0 0.0 9.0
22  1 1 2   0   0  1.331943e+03 -2.183281e+03 -3.110115e+02  2.576338e+03 0.0 0.0 9.0
 2  1 1 2 103   0 -1.331943e+03  2.183281e+03  6.151730e+02  2.630442e+03 0.0022 0.0 9.0
#pdf 21 2 4.239186e-01 3.771245e-01 5000.0 7.732891e-03 1.396509e-02
</event>
<event>
4 7 1.0 5000.0 7.905138e-03 7.739137e-02
21 -1 0 0 103 101  0.000000e+00  0.000000e+00  1.477750e+03  1.477750e+03 0.0 0.0 9.0
 2 -1 0 0 101   0  0.000000e+00  0.000000e+00 -4.254905e+03  4.254905e+03 0.0 0.0 9.0
22  1 1 2   0   0 -7.697652e+02 -1.003228e+03  1.086597e+03  1.667242e+03 0.0 0.0 9.0
 2  1 1 2 103   0  7.697652e+02  1.003228e+03 -3.863752e+03  4.065413e+03 0.0022 0.0 9.0
#pdf 21 2 2.273462e-01 6.546008e-01 5000.0 8.855740e-02 2.555023e-04
</event>
<event>
4 7 1.0 5000.0 7.905138e-03 7.739137e-02
 2 -1 0 0 101   0  0.000000e+00  0.000000e+00  1.758063e+03  1.758063e+03 0.0 0.0 9.0
21 -1 0 0 103 101  0.000000e+00  0.000000e+00 -2.484483e+03  2.484483e+03 0.0 0.0 9.0
22  1 1 2   0   0  1.736822e+02 -2.061261e+03 -6.055077e+01  2.069451e+03 0.0 0.0 9.0
 2  1 1 2 103   0 -1.736822e+02  2.061261e+03 -6.658696e+02  2.173095e+03 0.0022 0.0 9.0
#pdf 2 21 2.704712e-01 3.822282e-01 5000.0 2.865737e-01 1.590224e-01
</event>
<event>
4 7 1.0 5000.0 7.905138e-03 7.739137e-02
21 -1 0 0 103 101  0.000000e+00  0.000000e+00  1.964029e+03  1.964029e+03 0.0 0.0 9.0
 2 -1 0 0 101   0  0.000000e+00  0.000000e+00 -3.261601e+03  3.261601e+03 0.0 0.0 9.0
 2  1 1 2 103   0  9.396923e+02 -1.162728e+03  1.459528e+03  2.089301e+03 0.0022 0.0 9.0
22  1 1 2   0   0 -9.396923e+02  1.162728e+03 -2.757100e+03  3.136329e+03 0.0 0.0 9.0
#pdf 21 2 3.021583e-01 5.017847e-01 5000.0 3.509234e-02 2.749504e-03
</event>
<event>
4 7 1.0 5000.0 7.905138e-03 7.739137e-02
 2 -1 0 0 101   0  0.000000e+00  0.000000e+00  2.499418e+03  2.499418e+03 0.0 0.0 9.0
21 -1 0 0 103 101  0.000000e+00  0.000000e+00 -2.446023e+03  2.446023e+03 0.0 0.0 9.0
22  1 1 2   0   0 -2.087160e+03 -1.311038e+03 -1.697324e+02  2.470600e+03 0.0 0.0 9.0
 2  1 1 2 103   0  2.087160e+03  1.311038e+03  2.231275e+02  2.474842e+03 0.0022 0.0 9.0
#pdf 2 21 3.845259e-01 3.763113e-01 5000.0 1.568339e-01 1.647399e-01
</event>
<event>
4 7 1.0 5000.0 7.905138e-03 7.739137e-02
21 -1 0 0 103 101  0.000000e+00  0.000000e+00  1.491180e+03  1.491180e+03 0.0 0.0 9.0
 2 -1 0 0 101   0  0.000000e+00  0.000000e+00 -4.408749e+03  4.408749e+03 0.0 0.0 9.0
22  1 1 2   0   0  2.530675e+03  2.731776e+02 -1.103612e+03  2.774329e+03 0.0 0.0 9.0
 2  1 1 2 103   0 -2.530675e+03 -2.731776e+02 -1.813957e+03  3.125601e+03 0.0022 0.0 9.0
#pdf 21 2 2.294124e-01 6.782690e-01 5000.0 8.627456e-02 1.650493e-04
</event>
<event>
4 7 1.0 5000.0 7.905138e-03 7.739137e-02
21 -1 0 0 103 101  0.000000e+00  0.000000e+00  1.605169e+03  1.605169e+03 0.0 0.0 9.0
 2 -1 0 0 101   0  0.000000e+00  0.000000e+00 -4.008964e+03  4.008964e+03 0.0 0.0 9.0
22  1 1 2   0   0 -1.295364e+03  1.887012e+03 -2.412197e+03  3.325279e+03 0.0 0.0 9.0
 2  1 1 2 103   0  1.295364e+03 -1.887012e+03  8.403197e+00  2.288854e+03 0.0022 0.0 9.0
#pdf 21 2 2.469491e-01 6.167636e-01 5000.0 6.926742e-02 4.888483e-04
</event>
<event>
4 7 1.0 5000.0 7.905138e-03 7.739137e-02
 2 -1 0 0 101   0  0.000000e+00  0.000000e+00  1.832277e+03  1.832277e+03 0.0 0.0 9.0
21 -1 0 0 103 101  0.000000e+00  0.000000e+00 -3.442513e+03  3.442513e+03 0.0 0.0 9.0
 2  1 1 2 103   0 -1.909224e+02 -1.556034e+03  1.255365e+03  2.008391e+03 0.0022 0.0 9.0
22  1 1 2   0   0  1.909224e+02  1.556034e+03 -2.865602e+03  3.266399e+03 0.0 0.0 9.0
#pdf 2 21 2.818888e-01 5.296174e-01 5000.0 2.718646e-01 5.532112e-02
</event>
<event>
4 7 1.0 5000.0 7.905138e-03 7.739137e-02
 2 -1 0 0 101   0  0.000000e+00  0.000000e+00  3.472922e+03  3.472922e+03 0.0 0.0 9.0
21 -1 0 0 103 101  0.000000e+00  0.000000e+00 -1.710075e+03  1.710075e+03 0.0 0.0 9.0
22  1 1 2   0   0  7.546347e+02 -2.320959e+02  3.333154e+03  3.425384e+03 0.0 0.0 9.0
 2  1 1 2 103   0 -7.546347e+02  2.320959e+02 -1.570307e+03  1.757614e+03 0.0022 0.0 9.0
#pdf 2 21 5.342957e-01 2.630885e-01 5000.0 5.315855e-02 2.962380e-01
</event>
<event>
4 7 1.0 5000.0 7.905138e-03 7.739137e-02
 2 -1 0 0 101   0  0.000000e+00  0.000000e+00  2.464254e+03  2.464254e+03 0.0 0.0 9.0
21 -1 0 0 103 101  0.000000e+00  0.000000e+00 -2.521690e+03  2.521690e+03 0.0 0.0 9.0
 2  1 1 2 103   0  2.236655e+03 -3.765107e+02  1.005613e+03  2.481057e+03 0.0022 0.0 9.0
22  1 1 2   0   0 -2.236655e+03  3.765107e+02 -1.063049e+03  2.504887e+03 0.0 0.0 9.0
#pdf 2 21 3.791161e-01 3.879524e-01 5000.0 1.620154e-01 1.536052e-01
</event>
<event>
4 7 1.0 5000.0 7.905138e-03 7.739137e-02
21 -1 0 0 103 101  0.000000e+00  0.000000e+00  2.338932e+03  2.338932e+03 0.0 0.0 9.0
 2 -1 0 0 101   0  0.000000e+00  0.000000e+00 -2.663652e+03  2.663652e+03 0.0 0.0 9.0
 2  1 1 2 103   0 -2.902984e+01 -2.413524e+03 -7.994382e+02  2.542645e+03 0.0022 0.0 9.0
22  1 1 2   0   0  2.902984e+01  2.413524e+03  4.747184e+02  2.459939e+03 0.0 0.0 9.0
#pdf 21 2 3.598357e-01 4.097926e-01 5000.0 1.728321e-02 9.258214e-03
</event>
<event>
4 7 1.0 5000.0 7.905138e-03 7.739137e-02
 2 -1 0 0 101   0  0.000000e+00  0.000000e+00  1.765059e+03  1.765059e+03 0.0 0.0 9.0
21 -1 0 0 103 101  0.000000e+00  0.000000e+00 -3.616091e+03  3.616091e+03 0.0 0.0 9.0
22  1 1 2   0   0  1.712086e+03  9.329776e+02 -2.636453e+03  3.279111e+03 0.0 0.0 9.0
 2  1 1 2 103   0 -1.712086e+03 -9.329776e+02  7.854214e+02  2.102040e+03 0.0022 0.0 9.0
#pdf 2 21 2.715476e-01 5.563218e-01 5000.0 2.851731e-01 4.380734e-02
</event>
<event>
4 7 1.0 5000.0 7.905138e-03 7.739137e-02
 2 -1 0 0 101   0  0.000000e+00  0.000000e+00  1.454740e+03  1.454740e+03 0.0 0.0 9.0
21 -1 0 0 103 101  0.000000e+00  0.000000e+00 -4.133702e+03  4.133702e+03 0.0 0.0 9.0
 2  1 1 2 103   0  2.107344e+03  1.049002e+03 -5.565135e+02  2.418886e+03 0.0022 0.0 9.0
22  1 1 2   0   0 -2.107344e+03 -1.049002e+03 -2.122449e+03  3.169557e+03 0.0 0.0 9.0
#pdf 2 21 2.238062e-01 6.359542e-01 5000.0 3.492021e-01 1.970485e-02
</event>
<event>
4 7 1.0 5000.0 7.905138e-03 7.739137e-02
 2 -1 0 0 101   0  0.000000e+00  0.000000e+00  2.545802e+03  2.545802e+03 0.0 0.0 9.0
21 -1 0 0 103 101  0.000000e+00  0.000000e+00 -2.224942e+03  2.224942e+03 0.0 0.0 9.0
22  1 1 2   0   0 -2.319905e+03  2.579569e+02  6.259837e+02  2.416683e+03 0.0 0.0 9.0
 2  1 1 2 103   0  2.319905e+03 -2.579569e+02 -3.051233e+02  2.354061e+03 0.0022 0.0 9.0
#pdf 2 21 3.916619e-01 3.422988e-01 5000.0 1.501584e-01 2.000074e-01
</event>
<event>
4 7 1.0 5000.0 7.905138e-03 7.739137e-02
21 -1 0 0 103 101  0.000000e+00  0.000000e+00  3.211457e+03  3.211457e+03 0.0 0.0 9.0
 2 -1 0 0 101   0  0.000000e+00  0.000000e+00 -2.009424e+03  2.009424e+03 0.0 0.0 9.0
 2  1 1 2 103   0  5.794549e+02  1.684734e+03 -1.259798e+03  2.182015e+03 0.0022 0.0 9.0
22  1 1 2   0   0 -5.794549e+02 -1.684734e+03  2.461831e+03  3.038867e+03 0.0 0.0 9.0
#pdf 21 2 4.940704e-01 3.091422e-01 5000.0 3.058034e-03 3.223523e-02
</event>
<event>
4 7 1.0 5000.0 7.905138e-03 7.739137e-02
 2 -1 0 0 101   0  0.000000e+00  0.000000e+00  2.100777e+03  2.100777e+03 0.0 0.0 9.0
21 -1 0 0 103 101  0.000000e+00  0.000000e+00 -2.864087e+03  2.864087e+03 0.0 0.0 9.0
 2  1 1 2 103   0  2.392810e+03 -3.254024e+02 -8.173924e+02  2.549423e+03 0.0022 0.0 9.0
22  1 1 2   0   0 -2.392810e+03  3.254024e+02  5.408282e+01  2.415441e+03 0.0 0.0 9.0
#pdf 2 21 3.231965e-01 4.406287e-01 5000.0 2.215318e-01 1.091618e-01
</event>
<event>
4 7 1.0 5000.0 7.905138e-03 7.739137e-02
 2 -1 0 0 101   0  0.000000e+00  0.000000e+00  4.772397e+03  4.772397e+03 0.0 0.0 9.0
21 -1 0 0 103 101  0.000000e+00  0.000000e+00 -1.320031e+03  1.320031e+03 0.0 0.0 9.0
 2  1 1 2 103   0  8.774629e+01  1.590269e+03  4.080530e+03  4.380340e+03 0.0022 0.0 9.0
22  1 1 2   0   0 -8.774629e+01 -1.590269e+03 -6.281648e+02  1.712088e+03 0.0 0.0 9.0
#pdf 2 21 7.342149e-01 2.030817e-01 5000.0 5.453663e-03 3.777860e-01
</event>
<event>
4 7 1.0 5000.0 7.905138e-03 7.739137e-02
 2 -1 0 0 101   0  0.000000e+00  0.000000e+00  3.396133e+03  3.396133e+03 0.0 0.0 9.0
21 -1 0 0 103 101  0.000000e+00  0.000000e+00 -1.870958e+03  1.870958e+03 0.0 0.0 9.0
 2  1 1 2 103   0  2.420239e+03 -2.001647e+02  5.677771e+01  2.429166e+03 0.0022 0.0 9.0
22  1 1 2   0   0 -2.420239e+03  2.001647e+02  1.468397e+03  2.837924e+03 0.0 0.0 9.0
#pdf 2 21 5.224819e-01 2.878397e-01 5000.0 5.872831e-02 2.643186e-01
</event>
<event>
4 7 1.0 5000.0 7.905138e-03 7.739137e-02
 2 -1 0 0 101   0  0.000000e+00  0.000000e+00  2.461572e+03  2.461572e+03 0.0 0.0 9.0
21 -1 0 0 103 101  0.000000e+00  0.000000e+00 -2.539712e+03  2.539712e+03 0.0 0.0 9.0
22  1 1 2   0   0  1.813912e+00 -1.092860e+03 -2.288197e+03  2.535782e+03 0.0 0.0 9.0
 2  1 1 2 103   0 -1.813912e+00  1.092860e+03  2.210058e+03  2.465502e+03 0.0022 0.0 9.0
#pdf 2 21 3.787034e-01 3.907249e-01 5000.0 1.624146e-01 1.510244e-01
</event>
<event>
4 7 1.0 5000.0 7.905138e-03 7.739137e-02
 2 -1 0 0 101   0  0.000000e+00  0.000000e+00  4.380446e+03  4.380446e+03 0.0 0.0 9.0
21 -1 0 0 103 101  0.000000e+00  0.000000e+00 -1.274907e+03  1.274907e+03 0.0 0.0 9.0
22  1 1 2   0   0 -1.928211e+03  1.132529e+03  6.383340e+02  2.325530e+03 0.0 0.0 9.0
 2  1 1 2 103   0  1.928211e+03 -1.132529e+03  2.467205e+03  3.329823e+03 0.0022 0.0 9.0
#pdf 2 21 6.739148e-01 1.961396e-01 5000.0 1.258343e-02 3.873737e-01
</event>
<event>
4 7 1.0 5000.0 7.905138e-03 7.739137e-02
 2 -1 0 0 101   0  0.000000e+00  0.000000e+00  1.310326e+03  1.310326e+03 0.0 0.0 9.0
21 -1 0 0 103 101  0.000000e+00  0.000000e+00 -4.193601e+03  4.193601e+03 0.0 0.0 9.0
22  1 1 2   0   0  1.365224e+03 -1.727717e+03 -4.979607e+02  2.257611e+03 0.0 0.0 9.0
 2  1 1 2 103   0 -1.365224e+03  1.727717e+03 -2.385314e+03  3.246316e+03 0.0022 0.0 9.0
#pdf 2 21 2.015886e-01 6.451694e-01 5000.0 3.798382e-01 1.775345e-02
</event>
<event>
4 7 1.0 5000.0 7.905138e-03 7.739137e-02
21 -1 0 0 103 101  0.000000e+00  0.000000e+00  4.416320e+03  4.416320e+03 0.0 0.0 9.0
 2 -1 0 0 101   0  0.000000e+00  0.000000e+00 -1.292622e+03  1.292622e+03 0.0 0.0 9.0
22  1 1 2   0   0  1.999202e+03 -1.258736e+03  1.135411e+03  2.621142e+03 0.0 0.0 9.0
 2  1 1 2 103   0 -1.999202e+03  1.258736e+03  1.988286e+03  3.087800e+03 0.0022 0.0 9.0
#pdf 21 2 6.794338e-01 1.988649e-01 5000.0 1.614404e-04 1.276877e-01
</event>
<event>
4 7 1.0 5000.0 7.905138e-03 7.739137e-02
21 -1 0 0 103 101  0.000000e+00  0.000000e+00  1.281480e+03  1.281480e+03 0.0 0.0 9.0
 2 -1 0 0 101   0  0.000000e+00  0.000000e+00 -5.068176e+03  5.068176e+03 0.0 0.0 9.0
 2  1 1 2 103   0 -5.971918e+02 -8.482779e+02 -4.793229e+03  4.904208e+03 0.0022 0.0 9.0
22  1 1 2   0   0  5.971918e+02  8.482779e+02  1.006533e+03  1.445449e+03 0.0 0.0 9.0
#pdf 21 2 1.971508e-01 7.797194e-01 5000.0 1.305588e-01 1.768886e-05
</event>
<event>
4 7 1.0 5000.0 7.905138e-03 7.739137e-02
 2 -1 0 0 101   0  0.000000e+00  0.000000e+00  1.904614e+03  1.904614e+03 0.0 0.0 9.0
21 -1 0 0 103 101  0.000000e+00  0.000000e+00 -3.380013e+03  3.380013e+03 0.0 0.0 9.0
22  1 1 2   0   0 -2.354082e+03  8.300555e+00  2.479874e+02  2.367123e+03 0.0 0.0 9.0
 2  1 1 2 103   0  2.354082e+03 -8.300555e+00 -1.723386e+03  2.917505e+03 0.0022 0.0 9.0
#pdf 2 21 2.930176e-01 5.200020e-01 5000.0 2.578198e-01 5.994656e-02
</event>
<event>
4 7 1.0 5000.0 7.905138e-03 7.739137e-02
21 -1 0 0 103 101  0.000000e+00  0.000000e+00  3.822507e+03  3.822507e+03 0.0 0.0 9.0
 2 -1 0 0 101   0  0.000000e+00  0.000000e+00 -1.617867e+03  1.617867e+03 0.0 0.0 9.0
 2  1 1 2 103   0 -1.675120e+03 -1.813164e+02 -8.983598e+02  1.909438e+03 0.0022 0.0 9.0
22  1 1 2   0   0  1.675120e+03  1.813164e+02  3.103000e+03  3.530936e+03 0.0 0.0 9.0
#pdf 21 2 5.880780e-01 2.489027e-01 5000.0 7.751945e-04 6.764106e-02
</event>
<event>
4 7 1.0 5000.0 7.905138e-03 7.739137e-02
21 -1 0 0 103 101  0.000000e+00  0.000000e+00  2.990533e+03  2.990533e+03 0.0 0.0 9.0
 2 -1 0 0 101   0  0.000000e+00  0.000000e+00 -1.990975e+03  1.990975e+03 0.0 0.0 9.0
 2  1 1 2 103   0 -9.911638e+02 -1.027269e+03  2.519850e+03  2.896089e+03 0.0022 0.0 9.0
22  1 1 2   0   0  9.911638e+02  1.027269e+03 -1.520292e+03  2.085420e+03 0.0 0.0 9.0
#pdf 21 2 4.600821e-01 3.063039e-01 5000.0 4.830226e-03 3.337805e-02
</event>
<event>
4 7 1.0 5000.0 7.905138e-03 7.739137e-02
21 -1 0 0 103 101  0.000000e+00  0.000000e+00  4.187060e+03  4.187060e+03 0.0 0.0 9.0
 2 -1 0 0 101   0  0.000000e+00  0.000000e+00 -1.489233e+03  1.489233e+03 0.0 0.0 9.0
 2  1 1 2 103   0  5.446821e+01 -2.242851e+03  2.595092e+03  3.430430e+03 0.0022 0.0 9.0
22  1 1 2   0   0 -5.446821e+01  2.242851e+03  1.027345e+02  2.245863e+03 0.0 0.0 9.0
#pdf 21 2 6.441631e-01 2.291128e-01 5000.0 3.069388e-04 8.660038e-02
</event>
<event>
4 7 1.0 5000.0 7.905138e-03 7.739137e-02
21 -1 0 0 103 101  0.000000e+00  0.000000e+00  2.847858e+03  2.847858e+03 0.0 0.0 9.0
 2 -1 0 0 101   0  0.000000e+00  0.000000e+00 -2.188977e+03  2.188977e+03 0.0 0.0 9.0
 2  1 1 2 103   0  1.317603e+03  1.906251e+03  1.267027e+03  2.641066e+03 0.0022 0.0 9.0
22  1 1 2   0   0 -1.317603e+03 -1.906251e+03 -6.081454e+02  2.395769e+03 0.0 0.0 9.0
#pdf 21 2 4.381320e-01 3.367657e-01 5000.0 6.444475e-03 2.295660e-02
</event>
<event>
4 7 1.0 5000.0 7.905138e-03 7.739137e-02
 2 -1 0 0 101   0  0.000000e+00  0.000000e+00  1.691874e+03  1.691874e+03 0.0 0.0 9.0
21 -1 0 0 103 101  0.000000e+00  0.000000e+00 -3.815597e+03  3.815597e+03 0.0 0.0 9.0
 2  1 1 2 103   0 -7.217317e+02 -1.412170e+03 -3.213288e+03  3.583342e+03 0.0022 0.0 9.0
22  1 1 2   0   0  7.217317e+02  1.412170e+03  1.089565e+03  1.924129e+03 0.0 0.0 9.0
#pdf 2 21 2.602883e-01 5.870149e-01 5000.0 2.999234e-01 3.283099e-02
</event>
<event>
4 7 1.0 5000.0 7.905138e-03 7.739137e-02
 2 -1 0 0 101   0  0.000000e+00  0.000000e+00  4.974475e+03  4.974475e+03 0.0 0.0 9.0
21 -1 0 0 103 101  0.000000e+00  0.000000e+00 -1.171531e+03  1.171531e+03 0.0 0.0 9.0
 2  1 1 2 103   0  1.008839e+03 -2.189373e+03  1.737271e+03  2.971401e+03 0.0022 0.0 9.0
22  1 1 2   0   0 -1.008839e+03  2.189373e+03  2.065673e+03  3.174605e+03 0.0 0.0 9.0
#pdf 2 21 7.653038e-01 1.802355e-01 5000.0 3.274526e-03 4.091231e-01
</event>
<event>
4 7 1.0 5000.0 7.905138e-03 7.739137e-02
21 -1 0 0 103 101  0.000000e+00  0.000000e+00  4.157602e+03  4.157602e+03 0.0 0.0 9.0
 2 -1 0 0 101   0  0.000000e+00  0.000000e+00 -1.496765e+03  1.496765e+03 0.0 0.0 9.0
 2  1 1 2 103   0  1.301652e+03  2.123748e+03  1.483936e+03  2.899426e+03 0.0022 0.0 9.0
22  1 1 2   0   0 -1.301652e+03 -2.123748e+03  1.176902e+03  2.754941e+03 0.0 0.0 9.0
#pdf 21 2 6.396311e-01 2.302715e-01 5000.0 3.321627e-04 8.534933e-02
</event>
<event>
4 7 1.0 5000.0 7.905138e-03 7.739137e-02
21 -1 0 0 103 101  0.000000e+00  0.000000e+00  2.372527e+03  2.372527e+03 0.0 0.0 9.0
 2 -1 0 0 101   0  0.000000e+00  0.000000e+00 -2.581913e+03  2.581913e+03 0.0 0.0 9.0
22  1 1 2   0   0 -1.253483e+03  1.324006e+03  1.570555e+03  2.406420e+03 0.0 0.0 9.0
 2  1 1 2 103   0  1.253483e+03 -1.324006e+03 -1.779942e+03  2.548020e+03 0.0022 0.0 9.0
#pdf 21 2 3.650041e-01 3.972174e-01 5000.0 1.621985e-02 1.085282e-02
</event>
<event>
4 7 1.0 5000.0 7.905138e-03 7.739137e-02
 2 -1 0 0 101   0  0.000000e+00  0.000000e+00  4.528451e+03  4.528451e+03 0.0 0.0 9.0
21 -1 0 0 103 101  0.000000e+00  0.000000e+00 -1.345507e+03  1.345507e+03 0.0 0.0 9.0
22  1 1 2   0   0  1.900333e+03  7.388851e+02  3.246932e+03  3.834030e+03 0.0 0.0 9.0
 2  1 1 2 103   0 -1.900333e+03 -7.388851e+02 -6.398795e+01  2.039929e+03 0.0022 0.0 9.0
#pdf 2 21 6.966848e-01 2.070011e-01 5000.0 9.363407e-03 3.723812e-01
</event>
<event>
4 7 1.0 5000.0 7.905138e-03 7.739137e-02
 2 -1 0 0 101   0  0.000000e+00  0.000000e+00  3.995280e+03  3.995280e+03 0.0 0.0 9.0
21 -1 0 0 103 101  0.000000e+00  0.000000e+00 -1.537658e+03  1.537658e+03 0.0 0.0 9.0
 2  1 1 2 103   0  8.406085e+01  1.487928e+03  3.439344e+03  3.748344e+03 0.0022 0.0 9.0
22  1 1 2   0   0 -8.406085e+01 -1.487928e+03 -9.817225e+02  1.784594e+03 0.0 0.0 9.0
#pdf 2 21 6.146584e-01 2.365628e-01 5000.0 2.481909e-02 3.317417e-01
</event>
<event>
4 7 1.0 5000.0 7.905138e-03 7.739137e-02
 2 -1 0 0 101   0  0.000000e+00  0.000000e+00  2.727964e+03  2.727964e+03 0.0 0.0 9.0
21 -1 0 0 103 101  0.000000e+00  0.000000e+00 -2.303635e+03  2.303635e+03 0.0 0.0 9.0
 2  1 1 2 103   0  8.981308e+02 -1.134669e+03  2.266461e+03  2.689044e+03 0.0022 0.0 9.0
22  1 1 2   0   0 -8.981308e+02  1.134669e+03 -1.842132e+03  2.342554e+03 0.0 0.0 9.0
#pdf 2 21 4.196867e-01 3.544053e-01 5000.0 1.256480e-01 1.869909e-01
</event>
<event>
4 7 1.0 5000.0 7.905138e-03 7.739137e-02
21 -1 0 0 103 101  0.000000e+00  0.000000e+00  1.059907e+03  1.059907e+03 0.0 0.0 9.0
 2 -1 0 0 101   0  0.000000e+00  0.000000e+00 -4.216082e+03  4.216082e+03 0.0 0.0 9.0
22  1 1 2   0   0  2.038838e+03  5.503892e+02 -1.460580e+03  2.567700e+03 0.0 0.0 9.0
 2  1 1 2 103   0 -2.038838e+03 -5.503892e+02 -1.695595e+03  2.708290e+03 0.0022 0.0 9.0
#pdf 21 2 1.630627e-01 6.486280e-01 5000.0 2.066225e-01 2.837439e-04
</event>
<event>
4 7 1.0 5000.0 7.905138e-03 7.739137e-02
 2 -1 0 0 101   0  0.000000e+00  0.000000e+00  1.765338e+03  1.765338e+03 0.0 0.0 9.0
21 -1 0 0 103 101  0.000000e+00  0.000000e+00 -3.520525e+03  3.520525e+03 0.0 0.0 9.0
 2  1 1 2 103   0  1.742354e+02  7.762963e+02 -3.382320e+03  3.474634e+03 0.0022 0.0 9.0
22  1 1 2   0   0 -1.742354e+02 -7.762963e+02  1.627132e+03  1.811229e+03 0.0 0.0 9.0
#pdf 2 21 2.715904e-01 5.416193e-01 5000.0 2.851174e-01 4.989752e-02
</event>
<event>
4 7 1.0 5000.0 7.905138e-03 7.739137e-02
 2 -1 0 0 101   0  0.000000e+00  0.000000e+00  4.836464e+03  4.836464e+03 0.0 0.0 9.0
21 -1 0 0 103 101  0.000000e+00  0.000000e+00 -1.347466e+03  1.347466e+03 0.0 0.0 9.0
22  1 1 2   0   0  2.132709e+01  1.988654e+03  3.683070e+03  4.185714e+03 0.0 0.0 9.0
 2  1 1 2 103   0 -2.132709e+01 -1.988654e+03 -1.940723e+02  1.998215e+03 0.0022 0.0 9.0
#pdf 2 21 7.440713e-01 2.073025e-01 5000.0 4.670671e-03 3.719635e-01
</event>
<event>
4 7 1.0 5000.0 7.905138e-03 7.739137e-02
21 -1 0 0 103 101  0.000000e+00  0.000000e+00  2.122063e+03  2.122063e+03 0.0 0.0 9.0
 2 -1 0 0 101   0  0.000000e+00  0.000000e+00 -2.924758e+03  2.924758e+03 0.0 0.0 9.0
 2  1 1 2 103   0 -4.920357e+02 -2.588313e+02  2.058426e+03  2.132185e+03 0.0022 0.0 9.0
22  1 1 2   0   0  4.920357e+02  2.588313e+02 -2.861121e+03  2.914637e+03 0.0 0.0 9.0
#pdf 21 2 3.264713e-01 4.499628e-01 5000.0 2.604682e-02 5.519913e-03
</event>
<event>
4 7 1.0 5000.0 7.905138e-03 7.739137e-02
 2 -1 0 0 101   0  0.000000e+00  0.000000e+00  1.580585e+03  1.580585e+03 0.0 0.0 9.0
21 -1 0 0 103 101  0.000000e+00  0.000000e+00 -3.804051e+03  3.804051e+03 0.0 0.0 9.0
22  1 1 2   0   0 -1.585654e+03  1.863550e+03 -1.287092e+03  2.764728e+03 0.0 0.0 9.0
 2  1 1 2 103   0  1.585654e+03 -1.863550e+03 -9.363743e+02  2.619907e+03 0.0022 0.0 9.0
#pdf 2 21 2.431669e-01 5.852386e-01 5000.0 3.227994e-01 3.340381e-02
</event>
<event>
4 7 1.0 5000.0 7.905138e-03 7.739137e-02
 2 -1 0 0 101   0  0.000000e+00  0.000000e+00  4.087203e+03  4.087203e+03 0.0 0.0 9.0
21 -1 0 0 103 101  0.000000e+00  0.000000e+00 -1.387111e+03  1.387111e+03 0.0 0.0 9.0
 2  1 1 2 103   0 -1.227111e+03 -1.863722e+03  3.950511e+02  2.266126e+03 0.0022 0.0 9.0
22  1 1 2   0   0  1.227111e+03  1.863722e+03  2.305041e+03  3.208189e+03 0.0 0.0 9.0
#pdf 2 21 6.288005e-01 2.134017e-01 5000.0 2.132553e-02 3.634901e-01
</event>
<event>
4 7 1.0 5000.0 7.905138e-03 7.739137e-02
21 -1 0 0 103 101  0.000000e+00  0.000000e+00  2.554222e+03  2.554222e+03 0.0 0.0 9.0
 2 -1 0 0 101   0  0.000000e+00  0.000000e+00 -2.226304e+03  2.226304e+03 0.0 0.0 9.0
 2  1 1 2 103   0 -8.277770e+02 -1.247958e+03 -1.696186e+03  2.262667e+03 0.0022 0.0 9.0
22  1 1 2   0   0  8.277770e+02  1.247958e+03  2.024105e+03  2.517859e+03 0.0 0.0 9.0
#pdf 21 2 3.929572e-01 3.425083e-01 5000.0 1.144952e-02 2.139618e-02
</event>
<event>
4 7 1.0 5000.0 7.905138e-03 7.739137e-02
 2 -1 0 0 101   0  0.000000e+00  0.000000e+00  2.135085e+03  2.135085e+03 0.0 0.0 9.0
21 -1 0 0 103 101  0.000000e+00  0.000000e+00 -2.991934e+03  2.991934e+03 0.0 0.0 9.0
22  1 1 2   0   0 -1.891024e+03 -1.793844e+02  1.262658e+03  2.280889e+03 0.0 0.0 9.0
 2  1 1 2 103   0  1.891024e+03  1.793844e+02 -2.119507e+03  2.846131e+03 0.0022 0.0 9.0
#pdf 2 21 3.284747e-01 4.602976e-01 5000.0 2.154616e-01 9.502975e-02
</event>
<event>
4 7 1.0 5000.0 7.905138e-03 7.739137e-02
21 -1 0 0 103 101  0.000000e+00  0.000000e+00  1.758061e+03  1.758061e+03 0.0 0.0 9.0
 2 -1 0 0 101   0  0.000000e+00  0.000000e+00 -3.608828e+03  3.608828e+03 0.0 0.0 9.0
22  1 1 2   0   0 -2.354821e+03 -7.247423e+02 -1.483151e+03  2.875791e+03 0.0 0.0 9.0
 2  1 1 2 103   0  2.354821e+03  7.247423e+02 -3.676157e+02  2.491099e+03 0.0022 0.0 9.0
#pdf 21 2 2.704710e-01 5.552044e-01 5000.0 5.174485e-02 1.280479e-03
</event>
<event>
4 7 1.0 5000.0 7.905138e-03 7.739137e-02
 2 -1 0 0 101   0  0.000000e+00  0.000000e+00  1.398973e+03  1.398973e+03 0.0 0.0 9.0
21 -1 0 0 103 101  0.000000e+00  0.000000e+00 -4.351205e+03  4.351205e+03 0.0 0.0 9.0
 2  1 1 2 103   0  9.389437e+02  1.588703e+03 -3.384390e+03  3.854827e+03 0.0022 0.0 9.0
22  1 1 2   0   0 -9.389437e+02 -1.588703e+03  4.321584e+02  1.895351e+03 0.0 0.0 9.0
#pdf 2 21 2.152266e-01 6.694161e-01 5000.0 3.609712e-01 1.330581e-02
</event>
<event>
4 7 1.0 5000.0 7.905138e-03 7.739137e-02
21 -1 0 0 103 101  0.000000e+00  0.000000e+00  2.153749e+03  2.153749e+03 0.0 0.0 9.0
 2 -1 0 0 101   0  0.000000e+00  0.000000e+00 -2.885457e+03  2.885457e+03 0.0 0.0 9.0
22  1 1 2   0   0  1.177224e+03 -1.680697e+03  1.064920e+03  2.311850e+03 0.0 0.0 9.0
 2  1 1 2 103   0 -1.177224e+03  1.680697e+03 -1.796628e+03  2.727356e+03 0.0022 0.0 9.0
#pdf 21 2 3.313460e-01 4.439164e-01 5000.0 2.453827e-02 5.974215e-03
</event>
<event>
4 7 1.0 5000.0 7.905138e-03 7.739137e-02
21 -1 0 0 103 101  0.000000e+00  0.000000e+00  4.401162e+03  4.401162e+03 0.0 0.0 9.0
 2 -1 0 0 101   0  0.000000e+00  0.000000e+00 -1.372823e+03  1.372823e+03 0.0 0.0 9.0
22  1 1 2   0   0 -1.166759e+03  8.154825e+02  3.867778e+03  4.121413e+03 0.0 0.0 9.0
 2  1 1 2 103   0  1.166759e+03 -8.154825e+02 -8.394383e+02  1.652572e+03 0.0022 0.0 9.0
#pdf 21 2 6.771019e-01 2.112035e-01 5000.0 1.687560e-04 1.088438e-01
</event>
<event>
4 7 1.0 5000.0 7.905138e-03 7.739137e-02
 2 -1 0 0 101   0  0.000000e+00  0.000000e+00  3.170570e+03  3.170570e+03 0.0 0.0 9.0
21 -1 0 0 103 101  0.000000e+00  0.000000e+00 -1.804605e+03  1.804605e+03 0.0 0.0 9.0
22  1 1 2   0   0 -2.816171e+02  2.365359e+03  4.565770e+02  2.425427e+03 0.0 0.0 9.0
 2  1 1 2 103   0  2.816171e+02 -2.365359e+03  9.093876e+02  2.549749e+03 0.0022 0.0 9.0
#pdf 2 21 4.877800e-01 2.776316e-01 5000.0 7.747906e-02 2.773081e-01
</event>
<event>
4 7 1.0 5000.0 7.905138e-03 7.739137e-02
 2 -1 0 0 101   0  0.000000e+00  0.000000e+00  1.473561e+03  1.473561e+03 0.0 0.0 9.0
21 -1 0 0 103 101  0.000000e+00  0.000000e+00 -4.497994e+03  4.497994e+03 0.0 0.0 9.0
22  1 1 2   0   0 -1.992397e+03 -1.454597e+03 -6.579512e+02  2.553115e+03 0.0 0.0 9.0
 2  1 1 2 103   0  1.992397e+03  1.454597e+03 -2.366481e+03  3.418440e+03 0.0022 0.0 9.0
#pdf 2 21 2.267018e-01 6.919991e-01 5000.0 3.452438e-01 9.971394e-03
</event>
<event>
4 7 1.0 5000.0 7.905138e-03 7.739137e-02
 2 -1 0 0 101   0  0.000000e+00  0.000000e+00  3.018157e+03  3.018157e+03 0.0 0.0 9.0
21 -1 0 0 103 101  0.000000e+00  0.000000e+00 -2.067342e+03  2.067342e+03 0.0 0.0 9.0
22  1 1 2   0   0  1.969924e+03 -1.498259e+03  1.314298e+02  2.478438e+03 0.0 0.0 9.0
 2  1 1 2 103   0 -1.969924e+03  1.498259e+03  8.193852e+02  2.607062e+03 0.0022 0.0 9.0
#pdf 2 21 4.643319e-01 3.180526e-01 5000.0 9.230040e-02 2.275259e-01
</event>
<event>
4 7 1.0 5000.0 7.905138e-03 7.739137e-02
 2 -1 0 0 101   0  0.000000e+00  0.000000e+00  2.741746e+03  2.741746e+03 0.0 0.0 9.0
21 -1 0 0 103 101  0.000000e+00  0.000000e+00 -2.319180e+03  2.319180e+03 0.0 0.0 9.0
22  1 1 2   0   0  2.098185e+03 -8.656233e+02 -8.911652e+02  2.438413e+03 0.0 0.0 9.0
 2  1 1 2 103   0 -2.098185e+03  8.656233e+02  1.313731e+03  2.622513e+03 0.0022 0.0 9.0
#pdf 2 21 4.218071e-01 3.567969e-01 5000.0 1.239063e-01 1.844804e-01
</event>
<event>
4 7 1.0 5000.0 7.905138e-03 7.739137e-02
21 -1 0 0 103 101  0.000000e+00  0.000000e+00  1.788787e+03  1.788787e+03 0.0 0.0 9.0
 2 -1 0 0 101   0  0.000000e+00  0.000000e+00 -3.463642e+03  3.463642e+03 0.0 0.0 9.0
 2  1 1 2 103   0  2.179734e+03 -4.605294e+02  3.338465e+02  2.252728e+03 0.0022 0.0 9.0
22  1 1 2   0   0 -2.179734e+03  4.605294e+02 -2.008701e+03  2.999701e+03 0.0 0.0 9.0
#pdf 21 2 2.751980e-01 5.328680e-01 5000.0 4.882480e-02 1.775305e-03
</event>
<event>
4 7 1.0 5000.0 7.905138e-03 7.739137e-02
 2 -1 0 0 101   0  0.000000e+00  0.000000e+00  1.913399e+03  1.913399e+03 0.0 0.0 9.0
21 -1 0 0 103 101  0.000000e+00  0.000000e+00 -3.300170e+03  3.300170e+03 0.0 0.0 9.0
 2  1 1 2 103   0 -4.526549e+02  2.324811e+03  1.775732e+02  2.375116e+03 0.0022 0.0 9.0
22  1 1 2   0   0  4.526549e+02 -2.324811e+03 -1.564344e+03  2.838453e+03 0.0 0.0 9.0
#pdf 2 21 2.943691e-01 5.077184e-01 5000.0 2.561373e-01 6.625684e-02
</event>
<event>
4 7 1.0 5000.0 7.905138e-03 7.739137e-02
 2 -1 0 0 101   0  0.000000e+00  0.000000e+00  1.528590e+03  1.528590e+03 0.0 0.0 9.0
21 -1 0 0 103 101  0.000000e+00  0.000000e+00 -3.475671e+03  3.475671e+03 0.0 0.0 9.0
22  1 1 2   0   0 -2.002767e+03 -8.237736e+02 -1.830495e+03  2.835558e+03 0.0 0.0 9.0
 2  1 1 2 103   0  2.002767e+03  8.237736e+02 -1.165857e+02  2.168703e+03 0.0022 0.0 9.0
#pdf 2 21 2.351678e-01 5.347186e-01 5000.0 3.336478e-01 5.296562e-02
</event>
<event>
4 7 1.0 5000.0 7.905138e-03 7.739137e-02
21 -1 0 0 103 101  0.000000e+00  0.000000e+00  4.248253e+03  4.248253e+03 0.0 0.0 9.0
 2 -1 0 0 101   0  0.000000e+00  0.000000e+00 -1.455311e+03  1.455311e+03 0.0 0.0 9.0
22  1 1 2   0   0 -8.070627e+02  2.222817e+03  2.277636e+03  3.283274e+03 0.0 0.0 9.0
 2  1 1 2 103   0  8.070627e+02 -2.222817e+03  5.153067e+02  2.420290e+03 0.0022 0.0 9.0
#pdf 21 2 6.535775e-01 2.238940e-01 5000.0 2.601556e-04 9.254517e-02
</event>
<event>
4 7 1.0 5000.0 7.905138e-03 7.739137e-02
21 -1 0 0 103 101  0.000000e+00  0.000000e+00  2.459272e+03  2.459272e+03 0.0 0.0 9.0
 2 -1 0 0 101   0  0.000000e+00  0.000000e+00 -2.537407e+03  2.537407e+03 0.0 0.0 9.0
22  1 1 2   0   0 -1.767110e+03  7.688929e+02 -1.628696e+03  2.523197e+03 0.0 0.0 9.0
 2  1 1 2 103   0  1.767110e+03 -7.688929e+02  1.550560e+03  2.473482e+03 0.0022 0.0 9.0
#pdf 21 2 3.783495e-01 3.903704e-01 5000.0 1.375512e-02 1.182821e-02
</event>
<event>
4 7 1.0 5000.0 7.905138e-03 7.739137e-02
 2 -1 0 0 101   0  0.000000e+00  0.000000e+00  2.936192e+03  2.936192e+03 0.0 0.0 9.0
21 -1 0 0 103 101  0.000000e+00  0.000000e+00 -2.183770e+03  2.183770e+03 0.0 0.0 9.0
 2  1 1 2 103   0 -1.048318e+03 -7.029826e+02 -1.843064e+03  2.233840e+03 0.0022 0.0 9.0
22  1 1 2   0   0  1.048318e+03  7.029826e+02  2.595486e+03  2.886123e+03 0.0 0.0 9.0
#pdf 2 21 4.517219e-01 3.359646e-01 5000.0 1.010314e-01 2.070086e-01
</event>
<event>
4 7 1.0 5000.0 7.905138e-03 7.739137e-02
 2 -1 0 0 101   0  0.000000e+00  0.000000e+00  2.597461e+03  2.597461e+03 0.0 0.0 9.0
21 -1 0 0 103 101  0.000000e+00  0.000000e+00 -2.462476e+03  2.462476e+03 0.0 0.0 9.0
 2  1 1 2 103   0 -1.291947e+03  6.783979e+02  2.133860e+03  2.585094e+03 0.0022 0.0 9.0
22  1 1 2   0   0  1.291947e+03 -6.783979e+02 -1.998874e+03  2.474843e+03 0.0 0.0 9.0
#pdf 2 21 3.996094e-01 3.788424e-01 5000.0 1.429262e-01 1.622800e-01
</event>
<event>
4 7 1.0 5000.0 7.905138e-03 7.739137e-02
 2 -1 0 0 101   0  0.000000e+00  0.000000e+00  1.738904e+03  1.738904e+03 0.0 0.0 9.0
21 -1 0 0 103 101  0.000000e+00  0.000000e+00 -3.601435e+03  3.601435e+03 0.0 0.0 9.0
 2  1 1 2 103   0  1.228814e+03 -1.093531e+03  1.081023e+03  1.968351e+03 0.0022 0.0 9.0
22  1 1 2   0   0 -1.228814e+03  1.093531e+03 -2.943554e+03  3.371988e+03 0.0 0.0 9.0
#pdf 2 21 2.675237e-01 5.540669e-01 5000.0 2.904210e-01 4.469568e-02
</event>
<event>
4 7 1.0 5000.0 7.905138e-03 7.739137e-02
 2 -1 0 0 101   0  0.000000e+00  0.000000e+00  3.425230e+03  3.425230e+03 0.0 0.0 9.0
21 -1 0 0 103 101  0.000000e+00  0.000000e+00 -1.686056e+03  1.686056e+03 0.0 0.0 9.0
22  1 1 2   0   0  9.627020e+02 -2.134948e+03  2.965707e+02  2.360667e+03 0.0 0.0 9.0
 2  1 1 2 103   0 -9.627020e+02  2.134948e+03  1.442604e+03  2.750619e+03 0.0022 0.0 9.0
#pdf 2 21 5.269585e-01 2.593932e-01 5000.0 5.657455e-02 3.011037e-01
</event>
<event>
4 7 1.0 5000.0 7.905138e-03 7.739137e-02
21 -1 0 0 103 101  0.000000e+00  0.000000e+00  3.693225e+03  3.693225e+03 0.0 0.0 9.0
 2 -1 0 0 101   0  0.000000e+00  0.000000e+00 -1.669283e+03  1.669283e+03 0.0 0.0 9.0
 2  1 1 2 103   0  1.541962e+03 -9.186244e+02 -8.407231e+02  1.982002e+03 0.0022 0.0 9.0
22  1 1 2   0   0 -1.541962e+03  9.186244e+02  2.864665e+03  3.380506e+03 0.0 0.0 9.0
#pdf 21 2 5.681885e-01 2.568128e-01 5000.0 1.053822e-03 6.130944e-02
</event>
<event>
4 7 1.0 5000.0 7.905138e-03 7.739137e-02
21 -1 0 0 103 101  0.000000e+00  0.000000e+00  2.565921e+03  2.565921e+03 0.0 0.0 9.0
 2 -1 0 0 101   0  0.000000e+00  0.000000e+00 -2.370060e+03  2.370060e+03 0.0 0.0 9.0
22  1 1 2   0   0 -9.660471e+02 -6.770101e+02 -2.069370e+03  2.381991e+03 0.0 0.0 9.0
 2  1 1 2 103   0  9.660471e+02  6.770101e+02  2.265232e+03  2.553990e+03 0.0022 0.0 9.0
#pdf 21 2 3.947571e-01 3.646246e-01 5000.0 1.119348e-02 1.629629e-02
</event>
<event>
4 7 1.0 5000.0 7.905138e-03 7.739137e-02
 2 -1 0 0 101   0  0.000000e+00  0.000000e+00  1.940311e+03  1.940311e+03 0.0 0.0 9.0
21 -1 0 0 103 101  0.000000e+00  0.000000e+00 -3.181803e+03  3.181803e+03 0.0 0.0 9.0
22  1 1 2   0   0 -1.682386e+03 -5.423190e+02  1.179105e+03  2.124811e+03 0.0 0.0 9.0
 2  1 1 2 103   0  1.682386e+03  5.423190e+02 -2.420598e+03  2.997303e+03 0.0022 0.0 9.0
#pdf 2 21 2.985093e-01 4.895082e-01 5000.0 2.510256e-01 7.645700e-02
</event>
<event>
4 7 1.0 5000.0 7.905138e-03 7.739137e-02
21 -1 0 0 103 101  0.000000e+00  0.000000e+00  3.094901e+03  3.094901e+03 0.0 0.0 9.0
 2 -1 0 0 101   0  0.000000e+00  0.000000e+00 -1.979032e+03  1.979032e+03 0.0 0.0 9.0
 2  1 1 2 103   0  1.461519e+03  3.141252e+02 -1.463924e+03  2.092316e+03 0.0022 0.0 9.0
22  1 1 2   0   0 -1.461519e+03 -3.141252e+02  2.579792e+03  2.981617e+03 0.0 0.0 9.0
#pdf 21 2 4.761386e-01 3.044665e-01 5000.0 3.900550e-03 3.413206e-02
</event>
<event>
4 7 1.0 5000.0 7.905138e-03 7.739137e-02
21 -1 0 0 103 101  0.000000e+00  0.000000e+00  1.434735e+03  1.434735e+03 0.0 0.0 9.0
 2 -1 0 0 101   0  0.000000e+00  0.000000e+00 -4.411607e+03  4.411607e+03 0.0 0.0 9.0
22  1 1 2   0   0 -2.427956e+03  3.213493e+02 -2.157164e+03  3.263677e+03 0.0 0.0 9.0
 2  1 1 2 103   0  2.427956e+03 -3.213493e+02 -8.197081e+02  2.582664e+03 0.0022 0.0 9.0
#pdf 21 2 2.207284e-01 6.787087e-01 5000.0 9.637293e-02 1.636759e-04
</event>
<event>
4 7 1.0 5000.0 7.905138e-03 7.739137e-02
 2 -1 0 0 101   0  0.000000e+00  0.000000e+00  2.935335e+03  2.935335e+03 0.0 0.0 9.0
21 -1 0 0 103 101  0.000000e+00  0.000000e+00 -2.149312e+03  2.149312e+03 0.0 0.0 9.0
22  1 1 2   0   0 -1.939538e+03  1.501927e+03  9.393548e+02  2.626782e+03 0.0 0.0 9.0
 2  1 1 2 103   0  1.939538e+03 -1.501927e+03 -1.533317e+02  2.457866e+03 0.0022 0.0 9.0
#pdf 2 21 4.515901e-01 3.306634e-01 5000.0 1.011253e-01 2.129709e-01
</event>
<event>
4 7 1.0 5000.0 7.905138e-03 7.739137e-02
 2 -1 0 0 101   0  0.000000e+00  0.000000e+00  4.389674e+03  4.389674e+03 0.0 0.0 9.0
21 -1 0 0 103 101  0.000000e+00  0.000000e+00 -1.399396e+03  1.399396e+03 0.0 0.0 9.0
 2  1 1 2 103   0  2.204763e+03 -2.191308e+02  2.792412e+03  3.564627e+03 0.0022 0.0 9.0
22  1 1 2   0   0 -2.204763e+03  2.191308e+02  1.978664e+02  2.224444e+03 0.0 0.0 9.0
#pdf 2 21 6.753345e-01 2.152917e-01 5000.0 1.236014e-02 3.608815e-01
</event>
<event>
4 7 1.0 5000.0 7.905138e-03 7.739137e-02
21 -1 0 0 103 101  0.000000e+00  0.000000e+00  2.944616e+03  2.944616e+03 0.0 0.0 9.0
 2 -1 0 0 101   0  0.000000e+00  0.000000e+00 -2.160988e+03  2.160988e+03 0.0 0.0 9.0
22  1 1 2   0   0 -7.932789e+01  2.518099e+03  2.631527e+02  2.533054e+03 0.0 0.0 9.0
 2  1 1 2 103   0  7.932789e+01 -2.518099e+03  5.204757e+02  2.572549e+03 0.0022 0.0 9.0
#pdf 21 2 4.530178e-01 3.324596e-01 5000.0 5.304984e-03 2.420545e-02
</event>
<event>
4 7 1.0 5000.0 7.905138e-03 7.739137e-02
 2 -1 0 0 101   0  0.000000e+00  0.000000e+00  3.682110e+03  3.682110e+03 0.0 0.0 9.0
21 -1 0 0 103 101  0.000000e+00  0.000000e+00 -1.683685e+03  1.683685e+03 0.0 0.0 9.0
22  1 1 2   0   0 -1.699166e+03  1.379344e+03 -2.801618e+02  2.206411e+03 0.0 0.0 9.0
 2  1 1 2 103   0  1.699166e+03 -1.379344e+03  2.278587e+03  3.159385e+03 0.0022 0.0 9.0
#pdf 2 21 5.664785e-01 2.590285e-01 5000.0 3.991848e-02 3.015849e-01
</event>
<event>
4 7 1.0 5000.0 7.905138e-03 7.739137e-02
 2 -1 0 0 101   0  0.000000e+00  0.000000e+00  3.419313e+03  3.419313e+03 0.0 0.0 9.0
21 -1 0 0 103 101  0.000000e+00  0.000000e+00 -1.918595e+03  1.918595e+03 0.0 0.0 9.0
22  1 1 2   0   0 -7.430203e+02 -1.624373e+03 -1.162442e+03  2.131182e+03 0.0 0.0 9.0
 2  1 1 2 103   0  7.430203e+02  1.624373e+03  2.663161e+03  3.206726e+03 0.0022 0.0 9.0
#pdf 2 21 5.260482e-01 2.951684e-01 5000.0 5.700798e-02 2.551452e-01
</event>
<event>
4 7 1.0 5000.0 7.905138e-03 7.739137e-02
 2 -1 0 0 101   0  0.000000e+00  0.000000e+00  3.441498e+03  3.441498e+03 0.0 0.0 9.0
21 -1 0 0 103 101  0.000000e+00  0.000000e+00 -1.789544e+03  1.789544e+03 0.0 0.0 9.0
 2  1 1 2 103   0 -1.138234e+03 -1.869178e+03 -4.073084e+02  2.226051e+03 0.0022 0.0 9.0
22  1 1 2   0   0  1.138234e+03  1.869178e+03  2.059263e+03  3.004991e+03 0.0 0.0 9.0
#pdf 2 21 5.294613e-01 2.753144e-01 5000.0 5.539421e-02 2.802926e-01
</event>
<event>
4 7 1.0 5000.0 7.905138e-03 7.739137e-02
21 -1 0 0 103 101  0.000000e+00  0.000000e+00  1.862616e+03  1.862616e+03 0.0 0.0 9.0
 2 -1 0 0 101   0  0.000000e+00  0.000000e+00 -3.555955e+03  3.555955e+03 0.0 0.0 9.0
22  1 1 2   0   0  1.595115e+03  1.805666e+03  1.057742e+02  2.411640e+03 0.0 0.0 9.0
 2  1 1 2 103   0 -1.595115e+03 -1.805666e+03 -1.799114e+03  3.006931e+03 0.0022 0.0 9.0
#pdf 21 2 2.865563e-01 5.470700e-01 5000.0 4.247367e-02 1.443515e-03
</event>
<event>
4 7 1.0 5000.0 7.905138e-03 7.739137e-02
21 -1 0 0 103 101  0.000000e+00  0.000000e+00  2.709664e+03  2.709664e+03 0.0 0.0 9.0
 2 -1 0 0 101   0  0.000000e+00  0.000000e+00 -2.260261e+03  2.260261e+03 0.0 0.0 9.0
22  1 1 2   0   0 -7.126217e+02  2.651925e+02  2.589467e+03  2.698795e+03 0.0 0.0 9.0
 2  1 1 2 103   0  7.126217e+02 -2.651925e+02 -2.140064e+03  2.271130e+03 0.0022 0.0 9.0
#pdf 21 2 4.168714e-01 3.477324e-01 5000.0 8.460852e-03 2.007150e-02
</event>
<event>
4 7 1.0 5000.0 7.905138e-03 7.739137e-02
 2 -1 0 0 101   0  0.000000e+00  0.000000e+00  1.322275e+03  1.322275e+03 0.0 0.0 9.0
21 -1 0 0 103 101  0.000000e+00  0.000000e+00 -4.689004e+03  4.689004e+03 0.0 0.0 9.0
 2  1 1 2 103   0  8.329038e+02 -1.717141e+03 -3.613880e+03  4.086861e+03 0.0022 0.0 9.0
22  1 1 2   0   0 -8.329038e+02  1.717141e+03  2.471508e+02  1.924418e+03 0.0 0.0 9.0
#pdf 2 21 2.034269e-01 7.213853e-01 5000.0 3.773114e-01 6.614161e-03
</event>
<event>
4 7 1.0 5000.0 7.905138e-03 7.739137e-02
 2 -1 0 0 101   0  0.000000e+00  0.000000e+00  1.874854e+03  1.874854e+03 0.0 0.0 9.0
21 -1 0 0 103 101  0.000000e+00  0.000000e+00 -3.196562e+03  3.196562e+03 0.0 0.0 9.0
 2  1 1 2 103   0 -8.461483e+02 -7.291542e+02  1.595529e+03  1.947652e+03 0.0022 0.0 9.0
22  1 1 2   0   0  8.461483e+02  7.291542e+02 -2.917237e+03  3.123765e+03 0.0 0.0 9.0
#pdf 2 21 2.884391e-01 4.917788e-01 5000.0 2.635625e-01 7.512850e-02
</event>
<event>
4 7 1.0 5000.0 7.905138e-03 7.739137e-02
21 -1 0 0 103 101  0.000000e+00  0.000000e+00  2.148294e+03  2.148294e+03 0.0 0.0 9.0
 2 -1 0 0 101   0  0.000000e+00  0.000000e+00 -2.962064e+03  2.962064e+03 0.0 0.0 9.0
 2  1 1 2 103   0  8.163595e+02  8.785185e+01  2.009153e+03  2.170451e+03 0.0022 0.0 9.0
22  1 1 2   0   0 -8.163595e+02 -8.785185e+01 -2.822923e+03  2.939907e+03 0.0 0.0 9.0
#pdf 21 2 3.305068e-01 4.557021e-01 5000.0 2.479191e-02 5.120293e-03
</event>
<event>
4 7 1.0 5000.0 7.905138e-03 7.739137e-02
21 -1 0 0 103 101  0.000000e+00  0.000000e+00  2.057899e+03  2.057899e+03 0.0 0.0 9.0
 2 -1 0 0 101   0  0.000000e+00  0.000000e+00 -3.017010e+03  3.017010e+03 0.0 0.0 9.0
 2  1 1 2 103   0  1.624833e+03  1.596981e+03  5.480581e+02  2.343245e+03 0.0022 0.0 9.0
22  1 1 2   0   0 -1.624833e+03 -1.596981e+03 -1.507169e+03  2.731664e+03 0.0 0.0 9.0
#pdf 21 2 3.165999e-01 4.641554e-01 5000.0 2.939478e-02 4.576309e-03
</event>
<event>
4 7 1.0 5000.0 7.905138e-03 7.739137e-02
 2 -1 0 0 101   0  0.000000e+00  0.000000e+00  2.456120e+03  2.456120e+03 0.0 0.0 9.0
21 -1 0 0 103 101  0.000000e+00  0.000000e+00 -2.636043e+03  2.636043e+03 0.0 0.0 9.0
 2  1 1 2 103   0  1.128961e+03  1.110752e+03 -2.082716e+03  2.616492e+03 0.0022 0.0 9.0
22  1 1 2   0   0 -1.128961e+03 -1.110752e+03  1.902793e+03  2.475671e+03 0.0 0.0 9.0
#pdf 2 21 3.778646e-01 4.055451e-01 5000.0 1.632280e-01 1.376672e-01
</event>
<event>
4 7 1.0 5000.0 7.905138e-03 7.739137e-02
 2 -1 0 0 101   0  0.000000e+00  0.000000e+00  1.758987e+03  1.758987e+03 0.0 0.0 9.0
21 -1 0 0 103 101  0.000000e+00  0.000000e+00 -3.505813e+03  3.505813e+03 0.0 0.0 9.0
22  1 1 2   0   0  6.448171e+02  1.273651e+03  1.280524e+03  1.917737e+03 0.0 0.0 9.0
 2  1 1 2 103   0 -6.448171e+02 -1.273651e+03 -3.027350e+03  3.347062e+03 0.0022 0.0 9.0
#pdf 2 21 2.706133e-01 5.393558e-01 5000.0 2.863886e-01 5.088583e-02
</event>
<event>
4 7 1.0 5000.0 7.905138e-03 7.739137e-02
21 -1 0 0 103 101  0.000000e+00  0.000000e+00  1.827278e+03  1.827278e+03 0.0 0.0 9.0
 2 -1 0 0 101   0  0.000000e+00  0.000000e+00 -3.462528e+03  3.462528e+03 0.0 0.0 9.0
 2  1 1 2 103   0 -2.419029e+03  4.167247e+02 -1.395133e+03  2.823430e+03 0.0022 0.0 9.0
22  1 1 2   0   0  2.419029e+03 -4.167247e+02 -2.401172e+02  2.466377e+03 0.0 0.0 9.0
#pdf 21 2 2.811197e-01 5.326967e-01 5000.0 4.539380e-02 1.779712e-03
</event>
<event>
4 7 1.0 5000.0 7.905138e-03 7.739137e-02
 2 -1 0 0 101   0  0.000000e+00  0.000000e+00  2.721654e+03  2.721654e+03 0.0 0.0 9.0
21 -1 0 0 103 101  0.000000e+00  0.000000e+00 -2.279834e+03  2.279834e+03 0.0 0.0 9.0
 2  1 1 2 103   0 -6.416363e+02  2.405367e+03  1.343657e+02  2.493099e+03 0.0022 0.0 9.0
22  1 1 2   0   0  6.416363e+02 -2.405367e+03  3.074548e+02  2.508389e+03 0.0 0.0 9.0
#pdf 2 21 4.187161e-01 3.507437e-01 5000.0 1.264508e-01 1.908739e-01
</event>
<event>
4 7 1.0 5000.0 7.905138e-03 7.739137e-02
 2 -1 0 0 101   0  0.000000e+00  0.000000e+00  2.131837e+03  2.131837e+03 0.0 0.0 9.0
21 -1 0 0 103 101  0.000000e+00  0.000000e+00 -2.378389e+03  2.378389e+03 0.0 0.0 9.0
22  1 1 2   0   0  2.040425e+03 -9.284052e+02  8.933509e+01  2.243491e+03 0.0 0.0 9.0
 2  1 1 2 103   0 -2.040425e+03  9.284052e+02 -3.358866e+02  2.266735e+03 0.0022 0.0 9.0
#pdf 2 21 3.279749e-01 3.659059e-01 5000.0 2.160325e-01 1.750952e-01
</event>
<event>
4 7 1.0 5000.0 7.905138e-03 7.739137e-02
21 -1 0 0 103 101  0.000000e+00  0.000000e+00  4.355063e+03  4.355063e+03 0.0 0.0 9.0
 2 -1 0 0 101   0  0.000000e+00  0.000000e+00 -1.243302e+03  1.243302e+03 0.0 0.0 9.0
22  1 1 2   0   0  1.242062e+03 -3.952705e+01  3.922467e+03  4.114612e+03 0.0 0.0 9.0
 2  1 1 2 103   0 -1.242062e+03  3.952705e+01 -8.107058e+02  1.483753e+03 0.0022 0.0 9.0
#pdf 21 2 6.700097e-01 1.912772e-01 5000.0 1.927942e-04 1.410350e-01
</event>
<event>
4 7 1.0 5000.0 7.905138e-03 7.739137e-02
21 -1 0 0 103 101  0.000000e+00  0.000000e+00  2.640271e+03  2.640271e+03 0.0 0.0 9.0
 2 -1 0 0 101   0  0.000000e+00  0.000000e+00 -2.386660e+03  2.386660e+03 0.0 0.0 9.0
 2  1 1 2 103   0 -2.448958e+03  4.780281e+02 -1.483608e+02  2.499583e+03 0.0022 0.0 9.0
22  1 1 2   0   0  2.448958e+03 -4.780281e+02  4.019717e+02  2.527348e+03 0.0 0.0 9.0
#pdf 21 2 4.061955e-01 3.671785e-01 5000.0 9.691631e-03 1.578501e-02
</event>
<event>
4 7 1.0 5000.0 7.905138e-03 7.739137e-02
 2 -1 0 0 101   0  0.000000e+00  0.000000e+00  3.721103e+03  3.721103e+03 0.0 0.0 9.0
21 -1 0 0 103 101  0.000000e+00  0.000000e+00 -1.622138e+03  1.622138e+03 0.0 0.0 9.0
 2  1 1 2 103   0  1.855263e+03  1.555402e+03  1.504208e+03  2.850249e+03 0.0022 0.0 9.0
22  1 1 2   0   0 -1.855263e+03 -1.555402e+03  5.947570e+02  2.492993e+03 0.0 0.0 9.0
#pdf 2 21 5.724774e-01 2.495597e-01 5000.0 3.773726e-02 3.141924e-01
</event>
<event>
4 7 1.0 5000.0 7.905138e-03 7.739137e-02
 2 -1 0 0 101   0  0.000000e+00  0.000000e+00  2.445474e+03  2.445474e+03 0.0 0.0 9.0
21 -1 0 0 103 101  0.000000e+00  0.000000e+00 -2.386819e+03  2.386819e+03 0.0 0.0 9.0
 2  1 1 2 103   0 -1.125899e+03 -2.136890e+03  8.370831e+01  2.416806e+03 0.0022 0.0 9.0
22  1 1 2   0   0  1.125899e+03  2.136890e+03 -2.505349e+01  2.415486e+03 0.0 0.0 9.0
#pdf 2 21 3.762267e-01 3.672029e-01 5000.0 1.648224e-01 1.737812e-01
</event>
<event>
4 7 1.0 5000.0 7.905138e-03 7.739137e-02
21 -1 0 0 103 101  0.000000e+00  0.000000e+00  4.051496e+03  4.051496e+03 0.0 0.0 9.0
 2 -1 0 0 101   0  0.000000e+00  0.000000e+00 -1.546731e+03  1.546731e+03 0.0 0.0 9.0
 2  1 1 2 103   0  8.651168e+02  1.053744e+03 -1.095167e+03  1.748770e+03 0.0022 0.0 9.0
22  1 1 2   0   0 -8.651168e+02 -1.053744e+03  3.599932e+03  3.849457e+03 0.0 0.0 9.0
#pdf 21 2 6.233071e-01 2.379585e-01 5000.0 4.385881e-04 7.756879e-02
</event>
<event>
4 7 1.0 5000.0 7.905138e-03 7.739137e-02
21 -1 0 0 103 101  0.000000e+00  0.000000e+00  2.193487e+03  2.193487e+03 0.0 0.0 9.0
 2 -1 0 0 101   0  0.000000e+00  0.000000e+00 -2.758890e+03  2.758890e+03 0.0 0.0 9.0
22  1 1 2   0   0  1.917930e+03 -1.409626e+03  3.427493e+02  2.404782e+03 0.0 0.0 9.0
 2  1 1 2 103   0 -1.917930e+03  1.409626e+03 -9.081528e+02  2.547595e+03 0.0022 0.0 9.0
#pdf 21 2 3.374595e-01 4.244447e-01 5000.0 2.276144e-02 7.680843e-03
</event>
<event>
4 7 1.0 5000.0 7.905138e-03 7.739137e-02
 2 -1 0 0 101   0  0.000000e+00  0.000000e+00  3.245900e+03  3.245900e+03 0.0 0.0 9.0
21 -1 0 0 103 101  0.000000e+00  0.000000e+00 -1.955030e+03  1.955030e+03 0.0 0.0 9.0
 2  1 1 2 103   0 -4.531032e+02  2.244929e+03 -4.376564e+02  2.331641e+03 0.0022 0.0 9.0
22  1 1 2   0   0  4.531032e+02 -2.244929e+03  1.728526e+03  2.869288e+03 0.0 0.0 9.0
#pdf 2 21 4.993692e-01 3.007738e-01 5000.0 7.080557e-02 2.482529e-01
</event>
<event>
4 7 1.0 5000.0 7.905138e-03 7.739137e-02
21 -1 0 0 103 101  0.000000e+00  0.000000e+00  2.259577e+03  2.259577e+03 0.0 0.0 9.0
 2 -1 0 0 101   0  0.000000e+00  0.000000e+00 -2.776330e+03  2.776330e+03 0.0 0.0 9.0
 2  1 1 2 103   0 -1.786497e+03  1.270709e+03 -1.476027e+03  2.642901e+03 0.0022 0.0 9.0
22  1 1 2   0   0  1.786497e+03 -1.270709e+03  9.592736e+02  2.393006e+03 0.0 0.0 9.0
#pdf 21 2 3.476273e-01 4.271278e-01 5000.0 2.009740e-02 7.419904e-03
</event>
<event>
4 7 1.0 5000.0 7.905138e-03 7.739137e-02
 2 -1 0 0 101   0  0.000000e+00  0.000000e+00  2.344887e+03  2.344887e+03 0.0 0.0 9.0
21 -1 0 0 103 101  0.000000e+00  0.000000e+00 -2.737665e+03  2.737665e+03 0.0 0.0 9.0
 2  1 1 2 103   0  4.813962e+02 -2.260767e+03  8.443684e+02  2.460847e+03 0.0022 0.0 9.0
22  1 1 2   0   0 -4.813962e+02  2.260767e+03 -1.237147e+03  2.621705e+03 0.0 0.0 9.0
#pdf 2 21 3.607518e-01 4.211792e-01 5000.0 1.803715e-01 1.244203e-01
</event>
<event>
4 7 1.0 5000.0 7.905138e-03 7.739137e-02
 2 -1 0 0 101   0  0.000000e+00  0.000000e+00  2.510336e+03  2.510336e+03 0.0 0.0 9.0
21 -1 0 0 103 101  0.000000e+00  0.000000e+00 -2.522743e+03  2.522743e+03 0.0 0.0 9.0
22  1 1 2   0   0 -1.830902e+03 -1.109060e+03 -1.329354e+03  2.519801e+03 0.0 0.0 9.0
 2  1 1 2 103   0  1.830902e+03  1.109060e+03  1.316947e+03  2.513278e+03 0.0022 0.0 9.0
#pdf 2 21 3.862056e-01 3.881143e-01 5000.0 1.552459e-01 1.534537e-01
</event>
<event>
4 7 1.0 5000.0 7.905138e-03 7.739137e-02
 2 -1 0 0 101   0  0.000000e+00  0.000000e+00  2.449538e+03  2.449538e+03 0.0 0.0 9.0
21 -1 0 0 103 101  0.000000e+00  0.000000e+00 -2.531919e+03  2.531919e+03 0.0 0.0 9.0
22  1 1 2   0   0 -1.578193e+03 -6.484480e+02  1.773129e+03  2.460724e+03 0.0 0.0 9.0
 2  1 1 2 103   0  1.578193e+03  6.484480e+02 -1.855509e+03  2.520733e+03 0.0022 0.0 9.0
#pdf 2 21 3.768520e-01 3.895260e-01 5000.0 1.642127e-01 1.521369e-01
</event>
<event>
4 7 1.0 5000.0 7.905138e-03 7.739137e-02
 2 -1 0 0 101   0  0.000000e+00  0.000000e+00  3.444416e+03  3.444416e+03 0.0 0.0 9.0
21 -1 0 0 103 101  0.000000e+00  0.000000e+00 -1.784400e+03  1.784400e+03 0.0 0.0 9.0
22  1 1 2   0   0 -1.226037e+03  1.513283e+03 -7.876361e+02  2.100848e+03 0.0 0.0 9.0
 2  1 1 2 103   0  1.226037e+03 -1.513283e+03  2.447652e+03  3.127969e+03 0.0022 0.0 9.0
#pdf 2 21 5.299101e-01 2.745231e-01 5000.0 5.518424e-02 2.813149e-01
</event>
<event>
4 7 1.0 5000.0 7.905138e-03 7.739137e-02
 2 -1 0 0 101   0  0.000000e+00  0.000000e+00  2.054513e+03  2.054513e+03 0.0 0.0 9.0
21 -1 0 0 103 101  0.000000e+00  0.000000e+00 -2.836267e+03  2.836267e+03 0.0 0.0 9.0
 2  1 1 2 103   0 -2.329842e+03 -5.017694e+02 -2.199080e+00  2.383263e+03 0.0022 0.0 9.0
22  1 1 2   0   0  2.329842e+03  5.017694e+02 -7.795551e+02  2.507517e+03 0.0 0.0 9.0
#pdf 2 21 3.160789e-01 4.363488e-01 5000.0 2.298452e-01 1.124093e-01
</event>
<event>
4 7 1.0 5000.0 7.905138e-03 7.739137e-02
21 -1 0 0 103 101  0.000000e+00  0.000000e+00  3.883702e+03  3.883702e+03 0.0 0.0 9.0
 2 -1 0 0 101   0  0.000000e+00  0.000000e+00 -1.664477e+03  1.664477e+03 0.0 0.0 9.0
 2  1 1 2 103   0  2.000049e+03  1.118440e+03  2.311406e+03  3.254797e+03 0.0022 0.0 9.0
22  1 1 2   0   0 -2.000049e+03 -1.118440e+03 -9.218083e+01  2.293382e+03 0.0 0.0 9.0
#pdf 21 2 5.974926e-01 2.560734e-01 5000.0 6.679433e-04 6.188037e-02
</event>
<event>
4 7 1.0 5000.0 7.905138e-03 7.739137e-02
21 -1 0 0 103 101  0.000000e+00  0.000000e+00  2.071374e+03  2.071374e+03 0.0 0.0 9.0
 2 -1 0 0 101   0  0.000000e+00  0.000000e+00 -2.564341e+03  2.564341e+03 0.0 0.0 9.0
 2  1 1 2 103   0 -7.769398e+02  1.269761e+02 -2.424927e+03  2.549515e+03 0.0022 0.0 9.0
22  1 1 2   0   0  7.769398e+02 -1.269761e+02  1.931960e+03  2.086200e+03 0.0 0.0 9.0
#pdf 21 2 3.186730e-01 3.945140e-01 5000.0 2.865527e-02 1.122772e-02
</event>
<event>
4 7 1.0 5000.0 7.905138e-03 7.739137e-02
 2 -1 0 0 101   0  0.000000e+00  0.000000e+00  1.951690e+03  1.951690e+03 0.0 0.0 9.0
21 -1 0 0 103 101  0.000000e+00  0.000000e+00 -3.140380e+03  3.140380e+03 0.0 0.0 9.0
 2  1 1 2 103   0 -5.736416e+02 -2.047799e+03 -1.897838e+03  2.850322e+03 0.0022 0.0 9.0
22  1 1 2   0   0  5.736416e+02  2.047799e+03  7.091476e+02  2.241748e+03 0.0 0.0 9.0
#pdf 2 21 3.002600e-01 4.831354e-01 5000.0 2.488836e-01 8.027265e-02
</event>
<event>
4 7 1.0 5000.0 7.905138e-03 7.739137e-02
21 -1 0 0 103 101  0.000000e+00  0.000000e+00  1.883884e+03  1.883884e+03 0.0 0.0 9.0
 2 -1 0 0 101   0  0.000000e+00  0.000000e+00 -3.434231e+03  3.434231e+03 0.0 0.0 9.0
22  1 1 2   0   0 -2.107724e+02 -2.271435e+03  4.010158e+02  2.316173e+03 0.0 0.0 9.0
 2  1 1 2 103   0  2.107724e+02  2.271435e+03 -1.951363e+03  3.001943e+03 0.0022 0.0 9.0
#pdf 21 2 2.898283e-01 5.283433e-01 5000.0 4.082401e-02 1.894308e-03
</event>
<event>
4 7 1.0 5000.0 7.905138e-03 7.739137e-02
 2 -1 0 0 101   0  0.000000e+00  0.000000e+00  3.356051e+03  3.356051e+03 0.0 0.0 9.0
21 -1 0 0 103 101  0.000000e+00  0.000000e+00 -1.860274e+03  1.860274e+03 0.0 0.0 9.0
 2  1 1 2 103   0 -1.838140e+03 -1.459216e+03 -1.470771e+02  2.351532e+03 0.0022 0.0 9.0
22  1 1 2   0   0  1.838140e+03  1.459216e+03  1.642854e+03  2.864793e+03 0.0 0.0 9.0
#pdf 2 21 5.163155e-01 2.861960e-01 5000.0 6.179285e-02 2.663962e-01
</event>
<event>
4 7 1.0 5000.0 7.905138e-03 7.739137e-02
 2 -1 0 0 101   0  0.000000e+00  0.000000e+00  2.914551e+03  2.914551e+03 0.0 0.0 9.0
21 -1 0 0 103 101  0.000000e+00  0.000000e+00 -2.094576e+03  2.094576e+03 0.0 0.0 9.0
22  1 1 2   0   0  1.191785e+03  1.570789e+03  1.919313e+03  2.751635e+03 0.0 0.0 9.0
 2  1 1 2 103   0 -1.191785e+03 -1.570789e+03 -1.099337e+03  2.257493e+03 0.0022 0.0 9.0
#pdf 2 21 4.483925e-01 3.222424e-01 5000.0 1.034145e-01 2.226380e-01
</event>
<event>
4 7 1.0 5000.0 7.905138e-03 7.739137e-02
21 -1 0 0 103 101  0.000000e+00  0.000000e+00  2.646899e+03  2.646899e+03 0.0 0.0 9.0
 2 -1 0 0 101   0  0.000000e+00  0.000000e+00 -1.687335e+03  1.687335e+03 0.0 0.0 9.0
22  1 1 2   0   0  1.970876e+03 -2.532363e+02 -2.580587e+02  2.003765e+03 0.0 0.0 9.0
 2  1 1 2 103   0 -1.970876e+03  2.532363e+02  1.217623e+03  2.330469e+03 0.0022 0.0 9.0
#pdf 21 2 4.072153e-01 2.595900e-01 5000.0 9.567031e-03 5.921121e-02
</event>
<event>
4 7 1.0 5000.0 7.905138e-03 7.739137e-02
21 -1 0 0 103 101  0.000000e+00  0.000000e+00  2.114024e+03  2.114024e+03 0.0 0.0 9.0
 2 -1 0 0 101   0  0.000000e+00  0.000000e+00 -3.073394e+03  3.073394e+03 0.0 0.0 9.0
22  1 1 2   0   0  6.634978e+02  1.555333e+03  1.461134e+03  2.234771e+03 0.0 0.0 9.0
 2  1 1 2 103   0 -6.634978e+02 -1.555333e+03 -2.420504e+03  2.952648e+03 0.0022 0.0 9.0
#pdf 21 2 3.252345e-01 4.728299e-01 5000.0 2.644373e-02 4.077696e-03
</event>
<event>
4 7 1.0 5000.0 7.905138e-03 7.739137e-02
21 -1 0 0 103 101  0.000000e+00  0.000000e+00  3.107351e+03  3.107351e+03 0.0 0.0 9.0
 2 -1 0 0 101   0  0.000000e+00  0.000000e+00 -1.512597e+03  1.512597e+03 0.0 0.0 9.0
22  1 1 2   0   0  2.310337e+01  1.972218e+03  1.756315e+03  2.640988e+03 0.0 0.0 9.0
 2  1 1 2 103   0 -2.310337e+01 -1.972218e+03 -1.615615e+02  1.978959e+03 0.0022 0.0 9.0
#pdf 21 2 4.780539e-01 2.327073e-01 5000.0 3.801115e-03 8.279449e-02
</event>
<event>
4 7 1.0 5000.0 7.905138e-03 7.739137e-02
 2 -1 0 0 101   0  0.000000e+00  0.000000e+00  3.441531e+03  3.441531e+03 0.0 0.0 9.0
21 -1 0 0 103 101  0.000000e+00  0.000000e+00 -1.768931e+03  1.768931e+03 0.0 0.0 9.0
 2  1 1 2 103   0 -1.730551e+03 -6.705455e+02 -8.804052e+02  2.054155e+03 0.0022 0.0 9.0
22  1 1 2   0   0  1.730551e+03  6.705455e+02  2.553005e+03  3.156307e+03 0.0 0.0 9.0
#pdf 2 21 5.294663e-01 2.721432e-01 5000.0 5.539187e-02 2.843992e-01
</event>
<event>
4 7 1.0 5000.0 7.905138e-03 7.739137e-02
 2 -1 0 0 101   0  0.000000e+00  0.000000e+00  1.820521e+03  1.820521e+03 0.0 0.0 9.0
21 -1 0 0 103 101  0.000000e+00  0.000000e+00 -3.007851e+03  3.007851e+03 0.0 0.0 9.0
 2  1 1 2 103   0  1.461829e+02  2.293090e+03 -1.050667e+03  2.526565e+03 0.0022 0.0 9.0
22  1 1 2   0   0 -1.461829e+02 -2.293090e+03 -1.366633e+02  2.301806e+03 0.0 0.0 9.0
#pdf 2 21 2.800801e-01 4.627462e-01 5000.0 2.741707e-01 9.336513e-02
</event>
<event>
4 7 1.0 5000.0 7.905138e-03 7.739137e-02
21 -1 0 0 103 101  0.000000e+00  0.000000e+00  4.127784e+03  4.127784e+03 0.0 0.0 9.0
 2 -1 0 0 101   0  0.000000e+00  0.000000e+00 -1.511141e+03  1.511141e+03 0.0 0.0 9.0
22  1 1 2   0   0  2.603559e+02  2.133372e+03  2.744555e+03  3.485921e+03 0.0 0.0 9.0
 2  1 1 2 103   0 -2.603559e+02 -2.133372e+03 -1.279118e+02  2.153004e+03 0.0022 0.0 9.0
#pdf 21 2 6.350436e-01 2.324832e-01 5000.0 3.593771e-04 8.302560e-02
</event>
<event>
4 7 1.0 5000.0 7.905138e-03 7.739137e-02
21 -1 0 0 103 101  0.000000e+00  0.000000e+00  5.069580e+03  5.069580e+03 0.0 0.0 9.0
 2 -1 0 0 101   0  0.000000e+00  0.000000e+00 -1.207556e+03  1.207556e+03 0.0 0.0 9.0
22  1 1 2   0   0  2.161935e+03 -1.182630e+03  1.649566e+03  2.965408e+03 0.0 0.0 9.0
 2  1 1 2 103   0 -2.161935e+03  1.182630e+03  2.212458e+03  3.311729e+03 0.0022 0.0 9.0
#pdf 21 2 7.799355e-01 1.857779e-01 5000.0 1.759076e-05 1.518765e-01
</event>
<event>
4 7 1.0 5000.0 7.905138e-03 7.739137e-02
21 -1 0 0 103 101  0.000000e+00  0.000000e+00  3.924599e+03  3.924599e+03 0.0 0.0 9.0
 2 -1 0 0 101   0  0.000000e+00  0.000000e+00 -1.621240e+03  1.621240e+03 0.0 0.0 9.0
 2  1 1 2 103   0  3.735293e+02 -2.460783e+03  7.014518e+02  2.585926e+03 0.0022 0.0 9.0
22  1 1 2   0   0 -3.735293e+02  2.460783e+03  1.601906e+03  2.959913e+03 0.0 0.0 9.0
#pdf 21 2 6.037844e-01 2.494216e-01 5000.0 6.042166e-04 6.721246e-02
</event>
<event>
4 7 1.0 5000.0 7.905138e-03 7.739137e-02
21 -1 0 0 103 101  0.000000e+00  0.000000e+00  3.443678e+03  3.443678e+03 0.0 0.0 9.0
 2 -1 0 0 101   0  0.000000e+00  0.000000e+00 -1.458992e+03  1.458992e+03 0.0 0.0 9.0
 2  1 1 2 103   0  2.588188e+02 -1.548701e+03  2.741731e+03  3.159517e+03 0.0022 0.0 9.0
22  1 1 2   0   0 -2.588188e+02  1.548701e+03 -7.570453e+02  1.743152e+03 0.0 0.0 9.0
#pdf 21 2 5.297966e-01 2.244603e-01 5000.0 1.855463e-03 9.187751e-02
</event>
<event>
4 7 1.0 5000.0 7.905138e-03 7.739137e-02
 2 -1 0 0 101   0  0.000000e+00  0.000000e+00  2.704658e+03  2.704658e+03 0.0 0.0 9.0
21 -1 0 0 103 101  0.000000e+00  0.000000e+00 -2.297661e+03  2.297661e+03 0.0 0.0 9.0
 2  1 1 2 103   0  4.945422e+01 -1.762073e+03  1.972042e+03  2.645052e+03 0.0022 0.0 9.0
22  1 1 2   0   0 -4.945422e+01  1.762073e+03 -1.565045e+03  2.357268e+03 0.0 0.0 9.0
#pdf 2 21 4.161013e-01 3.534863e-01 5000.0 1.286299e-01 1.879608e-01
</event>
<event>
4 7 1.0 5000.0 7.905138e-03 7.739137e-02
 2 -1 0 0 101   0  0.000000e+00  0.000000e+00  3.798317e+03  3.798317e+03 0.0 0.0 9.0
21 -1 0 0 103 101  0.000000e+00  0.000000e+00 -1.649404e+03  1.649404e+03 0.0 0.0 9.0
 2  1 1 2 103   0 -5.407054e+02 -9.034583e+02  3.545596e+03  3.698628e+03 0.0022 0.0 9.0
22  1 1 2   0   0  5.407054e+02  9.034583e+02 -1.396683e+03  1.749092e+03 0.0 0.0 9.0
#pdf 2 21 5.843564e-01 2.537544e-01 5000.0 3.369096e-02 3.085760e-01
</event>
<event>
4 7 1.0 5000.0 7.905138e-03 7.739137e-02
 2 -1 0 0 101   0  0.000000e+00  0.000000e+00  2.802150e+03  2.802150e+03 0.0 0.0 9.0
21 -1 0 0 103 101  0.000000e+00  0.000000e+00 -2.588257e+03  2.588257e+03 0.0 0.0 9.0
 2  1 1 2 103   0 -1.062887e+03  6.003772e+02  2.509360e+03  2.790532e+03 0.0022 0.0 9.0
22  1 1 2   0   0  1.062887e+03 -6.003772e+02 -2.295467e+03  2.599875e+03 0.0 0.0 9.0
#pdf 2 21 4.311001e-01 3.981934e-01 5000.0 1.164695e-01 1.441993e-01
</event>
<event>
4 7 1.0 5000.0 7.905138e-03 7.739137e-02
21 -1 0 0 103 101  0.000000e+00  0.000000e+00  3.982444e+03  3.982444e+03 0.0 0.0 9.0
 2 -1 0 0 101   0  0.000000e+00  0.000000e+00 -1.535137e+03  1.535137e+03 0.0 0.0 9.0
22  1 1 2   0   0 -8.582421e+02 -1.220833e+03 -9.760008e+02  1.783141e+03 0.0 0.0 9.0
 2  1 1 2 103   0  8.582421e+02  1.220833e+03  3.423308e+03  3.734441e+03 0.0022 0.0 9.0
#pdf 21 2 6.126837e-01 2.361750e-01 5000.0 5.227115e-04 7.930667e-02
</event>
<event>
4 7 1.0 5000.0 7.905138e-03 7.739137e-02
 2 -1 0 0 101   0  0.000000e+00  0.000000e+00  3.565497e+03  3.565497e+03 0.0 0.0 9.0
21 -1 0 0 103 101  0.000000e+00  0.000000e+00 -1.746211e+03  1.746211e+03 0.0 0.0 9.0
22  1 1 2   0   0 -5.264901e+02  1.613111e+03  2.856841e+03  3.322779e+03 0.0 0.0 9.0
 2  1 1 2 103   0  5.264901e+02 -1.613111e+03 -1.037556e+03  1.988929e+03 0.0022 0.0 9.0
#pdf 2 21 5.485379e-01 2.686479e-01 5000.0 4.695414e-02 2.889517e-01
</event>
<event>
4 7 1.0 5000.0 7.905138e-03 7.739137e-02
21 -1 0 0 103 101  0.000000e+00  0.000000e+00  3.172010e+03  3.172010e+03 0.0 0.0 9.0
 2 -1 0 0 101   0  0.000000e+00  0.000000e+00 -2.003212e+03  2.003212e+03 0.0 0.0 9.0
22  1 1 2   0   0  9.076902e+02 -1.838284e+03 -9.211347e+02  2.247594e+03 0.0 0.0 9.0
 2  1 1 2 103   0 -9.076902e+02  1.838284e+03  2.089932e+03  2.927628e+03 0.0022 0.0 9.0
#pdf 21 2 4.880015e-01 3.081865e-01 5000.0 3.321391e-03 3.261682e-02
</event>
<event>
4 7 1.0 5000.0 7.905138e-03 7.739137e-02
 2 -1 0 0 101   0  0.000000e+00  0.000000e+00  2.307996e+03  2.307996e+03 0.0 0.0 9.0
21 -1 0 0 103 101  0.000000e+00  0.000000e+00 -2.643377e+03  2.643377e+03 0.0 0.0 9.0
 2  1 1 2 103   0  8.067245e+02  1.683217e+03  1.453711e+03  2.365861e+03 0.0022 0.0 9.0
22  1 1 2   0   0 -8.067245e+02 -1.683217e+03 -1.789092e+03  2.585512e+03 0.0 0.0 9.0
#pdf 2 21 3.550763e-01 4.066734e-01 5000.0 1.862845e-01 1.366822e-01
</event>
<event>
4 7 1.0 5000.0 7.905138e-03 7.739137e-02
 2 -1 0 0 101   0  0.000000e+00  0.000000e+00  4.500311e+03  4.500311e+03 0.0 0.0 9.0
21 -1 0 0 103 101  0.000000e+00  0.000000e+00 -1.649112e+03  1.649112e+03 0.0 0.0 9.0
22  1 1 2   0   0 -2.221166e+03 -4.060485e+02  3.145838e+03  3.872306e+03 0.0 0.0 9.0
 2  1 1 2 103   0  2.221166e+03  4.060485e+02 -2.946397e+02  2.277118e+03 0.0022 0.0 9.0
#pdf 2 21 6.923555e-01 2.537096e-01 5000.0 9.924156e-03 3.086356e-01
</event>
<event>
4 7 1.0 5000.0 7.905138e-03 7.739137e-02
 2 -1 0 0 101   0  0.000000e+00  0.000000e+00  2.387760e+03  2.387760e+03 0.0 0.0 9.0
21 -1 0 0 103 101  0.000000e+00  0.000000e+00 -2.623575e+03  2.623575e+03 0.0 0.0 9.0
22  1 1 2   0   0 -7.223137e+01 -2.085107e+03 -1.502040e+03  2.570799e+03 0.0 0.0 9.0
 2  1 1 2 103   0  7.223137e+01  2.085107e+03  1.266225e+03  2.440535e+03 0.0022 0.0 9.0
#pdf 2 21 3.673477e-01 4.036269e-01 5000.0 1.736349e-01 1.393527e-01
</event>
<event>
4 7 1.0 5000.0 7.905138e-03 7.739137e-02
 2 -1 0 0 101   0  0.000000e+00  0.000000e+00  2.917897e+03  2.917897e+03 0.0 0.0 9.0
21 -1 0 0 103 101  0.000000e+00  0.000000e+00 -2.220621e+03  2.220621e+03 0.0 0.0 9.0
 2  1 1 2 103   0 -1.206423e+02  1.560348e+03 -1.677667e+03  2.294298e+03 0.0022 0.0 9.0
22  1 1 2   0   0  1.206423e+02 -1.560348e+03  2.374942e+03  2.844220e+03 0.0 0.0 9.0
#pdf 2 21 4.489072e-01 3.416341e-01 5000.0 1.030444e-01 2.007363e-01
</event>
<event>
4 7 1.0 5000.0 7.905138e-03 7.739137e-02
21 -1 0 0 103 101  0.000000e+00  0.000000e+00  2.858860e+03  2.858860e+03 0.0 0.0 9.0
 2 -1 0 0 101   0  0.000000e+00  0.000000e+00 -2.622167e+03  2.622167e+03 0.0 0.0 9.0
 2  1 1 2 103   0  7.418568e+02  1.523222e+03 -2.034441e+03  2.647548e+03 0.0022 0.0 9.0
22  1 1 2   0   0 -7.418568e+02 -1.523222e+03  2.271134e+03  2.833480e+03 0.0 0.0 9.0
#pdf 21 2 4.398246e-01 4.034103e-01 5000.0 6.304906e-03 1.003910e-02
</event>
<event>
4 7 1.0 5000.0 7.905138e-03 7.739137e-02
21 -1 0 0 103 101  0.000000e+00  0.000000e+00  2.323706e+03  2.323706e+03 0.0 0.0 9.0
 2 -1 0 0 101   0  0.000000e+00  0.000000e+00 -2.796101e+03  2.796101e+03 0.0 0.0 9.0
 2  1 1 2 103   0 -1.087117e+03 -2.294665e+03 -1.162132e+01  2.539182e+03 0.0022 0.0 9.0
22  1 1 2   0   0  1.087117e+03  2.294665e+03 -4.607737e+02  2.580624e+03 0.0 0.0 9.0
#pdf 21 2 3.574932e-01 4.301693e-01 5000.0 1.778707e-02 7.135539e-03
</event>
<event>
4 7 1.0 5000.0 7.905138e-03 7.739137e-02
 2 -1 0 0 101   0  0.000000e+00  0.000000e+00  3.431594e+03  3.431594e+03 0.0 0.0 9.0
21 -1 0 0 103 101  0.000000e+00  0.000000e+00 -1.866896e+03  1.866896e+03 0.0 0.0 9.0
22  1 1 2   0   0  1.341941e+03  1.515641e+03  2.372634e+03  3.118872e+03 0.0 0.0 9.0
 2  1 1 2 103   0 -1.341941e+03 -1.515641e+03 -8.079363e+02  2.179618e+03 0.0022 0.0 9.0
#pdf 2 21 5.279375e-01 2.872148e-01 5000.0 5.611089e-02 2.651077e-01
</event>
<event>
4 7 1.0 5000.0 7.905138e-03 7.739137e-02
 2 -1 0 0 101   0  0.000000e+00  0.000000e+00  1.843230e+03  1.843230e+03 0.0 0.0 9.0
21 -1 0 0 103 101  0.000000e+00  0.000000e+00 -3.431679e+03  3.431679e+03 0.0 0.0 9.0
 2  1 1 2 103   0 -8.495161e+02 -2.160344e+03  2.206718e+02  2.331836e+03 0.0022 0.0 9.0
22  1 1 2   0   0  8.495161e+02  2.160344e+03 -1.809120e+03  2.943073e+03 0.0 0.0 9.0
#pdf 2 21 2.835739e-01 5.279506e-01 5000.0 2.697217e-01 5.610472e-02
</event>
<event>
4 7 1.0 5000.0 7.905138e-03 7.739137e-02
 2 -1 0 0 101   0  0.000000e+00  0.000000e+00  2.889882e+03  2.889882e+03 0.0 0.0 9.0
21 -1 0 0 103 101  0.000000e+00  0.000000e+00 -2.186836e+03  2.186836e+03 0.0 0.0 9.0
 2  1 1 2 103   0  2.036625e+03  1.986203e+02 -1.122959e+03  2.334166e+03 0.0022 0.0 9.0
22  1 1 2   0   0 -2.036625e+03 -1.986203e+02  1.826006e+03  2.742552e+03 0.0 0.0 9.0
#pdf 2 21 4.445972e-01 3.364362e-01 5000.0 1.061940e-01 2.064832e-01
</event>
<event>
4 7 1.0 5000.0 7.905138e-03 7.739137e-02
 2 -1 0 0 101   0  0.000000e+00  0.000000e+00  4.012393e+03  4.012393e+03 0.0 0.0 9.0
21 -1 0 0 103 101  0.000000e+00  0.000000e+00 -1.888272e+03  1.888272e+03 0.0 0.0 9.0
 2  1 1 2 103   0  2.345610e+03 -1.182509e+02 -4.765766e+02  2.396454e+03 0.0022 0.0 9.0
22  1 1 2   0   0 -2.345610e+03  1.182509e+02  2.600698e+03  3.504211e+03 0.0 0.0 9.0
#pdf 2 21 6.172913e-01 2.905034e-01 5000.0 2.413916e-02 2.609657e-01
</event>
<event>
4 7 1.0 5000.0 7.905138e-03 7.739137e-02
 2 -1 0 0 101   0  0.000000e+00  0.000000e+00  4.045392e+03  4.045392e+03 0.0 0.0 9.0
21 -1 0 0 103 101  0.000000e+00  0.000000e+00 -1.991868e+03  1.991868e+03 0.0 0.0 9.0
 2  1 1 2 103   0  5.599005e+02  1.210522e+03 -1.637922e+03  2.112259e+03 0.0022 0.0 9.0
22  1 1 2   0   0 -5.599005e+02 -1.210522e+03  3.691446e+03  3.925000e+03 0.0 0.0 9.0
#pdf 2 21 6.223680e-01 3.064412e-01 5000.0 2.286673e-02 2.413457e-01
</event>
<event>
4 7 1.0 5000.0 7.905138e-03 7.739137e-02
21 -1 0 0 103 101  0.000000e+00  0.000000e+00  2.043654e+03  2.043654e+03 0.0 0.0 9.0
 2 -1 0 0 101   0  0.000000e+00  0.000000e+00 -2.920069e+03  2.920069e+03 0.0 0.0 9.0
 2  1 1 2 103   0  9.425735e+02 -2.245385e+03 -6.347077e+02  2.516556e+03 0.0022 0.0 9.0
22  1 1 2   0   0 -9.425735e+02  2.245385e+03 -2.417076e+02  2.447166e+03 0.0 0.0 9.0
#pdf 21 2 3.144082e-01 4.492414e-01 5000.0 3.020176e-02 5.571231e-03
</event>
<event>
4 7 1.0 5000.0 7.905138e-03 7.739137e-02
21 -1 0 0 103 101  0.000000e+00  0.000000e+00  2.400835e+03  2.400835e+03 0.0 0.0 9.0
 2 -1 0 0 101   0  0.000000e+00  0.000000e+00 -2.565975e+03  2.565975e+03 0.0 0.0 9.0
22  1 1 2   0   0  4.354528e+02  2.414274e+03 -4.598033e+02  2.495948e+03 0.0 0.0 9.0
 2  1 1 2 103   0 -4.354528e+02 -2.414274e+03  2.946631e+02  2.470863e+03 0.0022 0.0 9.0
#pdf 21 2 3.693593e-01 3.947654e-01 5000.0 1.535783e-02 1.119230e-02
</event>
<event>
4 7 1.0 5000.0 7.905138e-03 7.739137e-02
21 -1 0 0 103 101  0.000000e+00  0.000000e+00  1.800319e+03  1.800319e+03 0.0 0.0 9.0
 2 -1 0 0 101   0  0.000000e+00  0.000000e+00 -3.492563e+03  3.492563e+03 0.0 0.0 9.0
22  1 1 2   0   0 -1.536465e+03  9.897161e+01  1.242710e+03  1.978598e+03 0.0 0.0 9.0
 2  1 1 2 103   0  1.536465e+03 -9.897161e+01 -2.934955e+03  3.314284e+03 0.0022 0.0 9.0
#pdf 21 2 2.769721e-01 5.373175e-01 5000.0 4.777194e-02 1.663384e-03
</event>
<event>
4 7 1.0 5000.0 7.905138e-03 7.739137e-02
 2 -1 0 0 101   0  0.000000e+00  0.000000e+00  4.782842e+03  4.782842e+03 0.0 0.0 9.0
21 -1 0 0 103 101  0.000000e+00  0.000000e+00 -1.323894e+03  1.323894e+03 0.0 0.0 9.0
22  1 1 2   0   0 -9.743824e+02  2.175920e+03  2.706200e+03  3.606600e+03 0.0 0.0 9.0
 2  1 1 2 103   0  9.743824e+02 -2.175920e+03  7.527493e+02  2.500136e+03 0.0022 0.0 9.0
#pdf 2 21 7.358219e-01 2.036759e-01 5000.0 5.319438e-03 3.769689e-01
</event>
<event>
4 7 1.0 5000.0 7.905138e-03 7.739137e-02
21 -1 0 0 103 101  0.000000e+00  0.000000e+00  2.065132e+03  2.065132e+03 0.0 0.0 9.0
 2 -1 0 0 101   0  0.000000e+00  0.000000e+00 -2.448276e+03  2.448276e+03 0.0 0.0 9.0
22  1 1 2   0   0  1.714905e+03  5.950389e+02  1.140277e+03  2.143643e+03 0.0 0.0 9.0
 2  1 1 2 103   0 -1.714905e+03 -5.950389e+02 -1.523421e+03  2.369765e+03 0.0022 0.0 9.0
#pdf 21 2 3.177126e-01 3.766578e-01 5000.0 2.899499e-02 1.404564e-02
</event>
<event>
4 7 1.0 5000.0 7.905138e-03 7.739137e-02
 2 -1 0 0 101   0  0.000000e+00  0.000000e+00  2.900878e+03  2.900878e+03 0.0 0.0 9.0
21 -1 0 0 103 101  0.000000e+00  0.000000e+00 -2.164133e+03  2.164133e+03 0.0 0.0 9.0
22  1 1 2   0   0  1.930138e+03  1.585109e+03  1.665205e+02  2.503145e+03 0.0 0.0 9.0
 2  1 1 2 103   0 -1.930138e+03 -1.585109e+03  5.702238e+02  2.561866e+03 0.0022 0.0 9.0
#pdf 2 21 4.462889e-01 3.329436e-01 5000.0 1.049436e-01 2.103939e-01
</event>
<event>
4 7 1.0 5000.0 7.905138e-03 7.739137e-02
21 -1 0 0 103 101  0.000000e+00  0.000000e+00  1.296626e+03  1.296626e+03 0.0 0.0 9.0
 2 -1 0 0 101   0  0.000000e+00  0.000000e+00 -4.587121e+03  4.587121e+03 0.0 0.0 9.0
22  1 1 2   0   0 -3.679789e+02 -2.382404e+03 -1.199538e+03  2.692610e+03 0.0 0.0 9.0
 2  1 1 2 103   0  3.679789e+02  2.382404e+03 -2.090956e+03  3.191137e+03 0.0022 0.0 9.0
#pdf 21 2 1.994809e-01 7.057109e-01 5000.0 1.266697e-01 9.640420e-05
</event>
<event>
4 7 1.0 5000.0 7.905138e-03 7.739137e-02
21 -1 0 0 103 101  0.000000e+00  0.000000e+00  2.786312e+03  2.786312e+03 0.0 0.0 9.0
 2 -1 0 0 101   0  0.000000e+00  0.000000e+00 -1.856429e+03  1.856429e+03 0.0 0.0 9.0
 2  1 1 2 103   0 -1.769107e+03 -1.410728e+03  6.992512e+02  2.368300e+03 0.0022 0.0 9.0
22  1 1 2   0   0  1.769107e+03  1.410728e+03  2.306323e+02  2.274441e+03 0.0 0.0 9.0
#pdf 21 2 4.286635e-01 2.856045e-01 5000.0 7.274632e-03 4.296727e-02
</event>
<event>
4 7 1.0 5000.0 7.905138e-03 7.739137e-02
 2 -1 0 0 101   0  0.000000e+00  0.000000e+00  2.834142e+03  2.834142e+03 0.0 0.0 9.0
21 -1 0 0 103 101  0.000000e+00  0.000000e+00 -2.174473e+03  2.174473e+03 0.0 0.0 9.0
 2  1 1 2 103   0 -9.825224e+02  1.943027e+03 -8.731471e+02  2.345866e+03 0.0022 0.0 9.0
22  1 1 2   0   0  9.825224e+02 -1.943027e+03  1.532817e+03  2.662749e+03 0.0 0.0 9.0
#pdf 2 21 4.360219e-01 3.345343e-01 5000.0 1.126596e-01 2.086072e-01
</event>
<event>
4 7 1.0 5000.0 7.905138e-03 7.739137e-02
21 -1 0 0 103 101  0.000000e+00  0.000000e+00  2.385474e+03  2.385474e+03 0.0 0.0 9.0
 2 -1 0 0 101   0  0.000000e+00  0.000000e+00 -2.886719e+03  2.886719e+03 0.0 0.0 9.0
 2  1 1 2 103   0 -4.154176e+02 -4.974700e+02 -2.805055e+03  2.878955e+03 0.0022 0.0 9.0
22  1 1 2   0   0  4.154176e+02  4.974700e+02  2.303809e+03  2.393238e+03 0.0 0.0 9.0
#pdf 21 2 3.669959e-01 4.441106e-01 5000.0 1.582135e-02 5.958703e-03
</event>
<event>
4 7 1.0 5000.0 7.905138e-03 7.739137e-02
21 -1 0 0 103 101  0.000000e+00  0.000000e+00  2.606440e+03  2.606440e+03 0.0 0.0 9.0
 2 -1 0 0 101   0  0.000000e+00  0.000000e+00 -2.522812e+03  2.522812e+03 0.0 0.0 9.0
 2  1 1 2 103   0  2.068966e+03  6.950273e+02  1.388052e+03  2.586575e+03 0.0022 0.0 9.0
22  1 1 2   0   0 -2.068966e+03 -6.950273e+02 -1.304424e+03  2.542676e+03 0.0 0.0 9.0
#pdf 21 2 4.009908e-01 3.881249e-01 5000.0 1.034995e-02 1.216778e-02
</event>
<event>
4 7 1.0 5000.0 7.905138e-03 7.739137e-02
 2 -1 0 0 101   0  0.000000e+00  0.000000e+00  3.917632e+03  3.917632e+03 0.0 0.0 9.0
21 -1 0 0 103 101  0.000000e+00  0.000000e+00 -1.574305e+03  1.574305e+03 0.0 0.0 9.0
22  1 1 2   0   0 -7.522313e+02 -1.796076e+03 -5.326320e+02  2.018771e+03 0.0 0.0 9.0
 2  1 1 2 103   0  7.522313e+02  1.796076e+03  2.875958e+03  3.473165e+03 0.0022 0.0 9.0
#pdf 2 21 6.027126e-01 2.422008e-01 5000.0 2.808146e-02 3.240966e-01
</event>
<event>
4 7 1.0 5000.0 7.905138e-03 7.739137e-02
21 -1 0 0 103 101  0.000000e+00  0.000000e+00  1.464173e+03  1.464173e+03 0.0 0.0 9.0
 2 -1 0 0 101   0  0.000000e+00  0.000000e+00 -3.666477e+03  3.666477e+03 0.0 0.0 9.0
22  1 1 2   0   0 -1.366177e+03  2.615820e+02  9.504339e+02  1.684693e+03 0.0 0.0 9.0
 2  1 1 2 103   0  1.366177e+03 -2.615820e+02 -3.152738e+03  3.445957e+03 0.0022 0.0 9.0
#pdf 21 2 2.252574e-01 5.640734e-01 5000.0 9.094680e-02 1.122267e-03
</event>
<event>
4 7 1.0 5000.0 7.905138e-03 7.739137e-02
21 -1 0 0 103 101  0.000000e+00  0.000000e+00  2.602040e+03  2.602040e+03 0.0 0.0 9.0
 2 -1 0 0 101   0  0.000000e+00  0.000000e+00 -2.482901e+03  2.482901e+03 0.0 0.0 9.0
 2  1 1 2 103   0  2.288047e+03  8.376555e+02  7.834953e+02  2.559432e+03 0.0022 0.0 9.0
22  1 1 2   0   0 -2.288047e+03 -8.376555e+02 -6.643559e+02  2.525509e+03 0.0 0.0 9.0
#pdf 21 2 4.003139e-01 3.819848e-01 5000.0 1.043849e-02 1.314561e-02
</event>
<event>
4 7 1.0 5000.0 7.905138e-03 7.739137e-02
21 -1 0 0 103 101  0.000000e+00  0.000000e+00  1.316616e+03  1.316616e+03 0.0 0.0 9.0
 2 -1 0 0 101   0  0.000000e+00  0.000000e+00 -4.749211e+03  4.749211e+03 0.0 0.0 9.0
22  1 1 2   0   0  5.690223e+02 -1.820189e+03 -3.678030e+03  4.143040e+03 0.0 0.0 9.0
 2  1 1 2 103   0 -5.690223e+02  1.820189e+03  2.454356e+02  1.922787e+03 0.0022 0.0 9.0
#pdf 21 2 2.025564e-01 7.306478e-01 5000.0 1.216699e-01 5.701767e-05
</event>
<event>
4 7 1.0 5000.0 7.905138e-03 7.739137e-02
21 -1 0 0 103 101  0.000000e+00  0.000000e+00  1.572101e+03  1.572101e+03 0.0 0.0 9.0
 2 -1 0 0 101   0  0.000000e+00  0.000000e+00 -4.216166e+03  4.216166e+03 0.0 0.0 9.0
22  1 1 2   0   0 -1.103398e+03  1.729446e+03  4.266314e+02  2.095348e+03 0.0 0.0 9.0
 2  1 1 2 103   0  1.103398e+03 -1.729446e+03 -3.070697e+03  3.692919e+03 0.0022 0.0 9.0
#pdf 21 2 2.418616e-01 6.486409e-01 5000.0 7.386595e-02 2.836797e-04
</event>
<event>
4 7 1.0 5000.0 7.905138e-03 7.739137e-02
 2 -1 0 0 101   0  0.000000e+00  0.000000e+00  4.503248e+03  4.503248e+03 0.0 0.0 9.0
21 -1 0 0 103 101  0.000000e+00  0.000000e+00 -1.363694e+03  1.363694e+03 0.0 0.0 9.0
 2  1 1 2 103   0 -1.771242e+03  6.996989e+02 -3.071971e+02  1.929054e+03 0.0022 0.0 9.0
22  1 1 2   0   0  1.771242e+03 -6.996989e+02  3.446750e+03  3.937888e+03 0.0 0.0 9.0
#pdf 2 21 6.928073e-01 2.097992e-01 5000.0 9.864512e-03 3.684881e-01
</event>
<event>
4 7 1.0 5000.0 7.905138e-03 7.739137e-02
 2 -1 0 0 101   0  0.000000e+00  0.000000e+00  1.330114e+03  1.330114e+03 0.0 0.0 9.0
21 -1 0 0 103 101  0.000000e+00  0.000000e+00 -4.461447e+03  4.461447e+03 0.0 0.0 9.0
22  1 1 2   0   0  2.227589e+03 -8.084402e+02 -2.236540e+03  3.258503e+03 0.0 0.0 9.0
 2  1 1 2 103   0 -2.227589e+03  8.084402e+02 -8.947926e+02  2.533058e+03 0.0022 0.0 9.0
#pdf 2 21 2.046330e-01 6.863764e-01 5000.0 3.756516e-01 1.073694e-02
</event>
<event>
4 7 1.0 5000.0 7.905138e-03 7.739137e-02
 2 -1 0 0 101   0  0.000000e+00  0.000000e+00  2.972641e+03  2.972641e+03 0.0 0.0 9.0
21 -1 0 0 103 101  0.000000e+00  0.000000e+00 -2.044079e+03  2.044079e+03 0.0 0.0 9.0
 2  1 1 2 103   0  1.561048e+03  1.546062e+02 -1.470609e+03  2.150225e+03 0.0022 0.0 9.0
22  1 1 2   0   0 -1.561048e+03 -1.546062e+02  2.399171e+03  2.866495e+03 0.0 0.0 9.0
#pdf 2 21 4.573294e-01 3.144737e-01 5000.0 9.707977e-02 2.317401e-01
</event>
<event>
4 7 1.0 5000.0 7.905138e-03 7.739137e-02
 2 -1 0 0 101   0  0.000000e+00  0.000000e+00  3.092930e+03  3.092930e+03 0.0 0.0 9.0
21 -1 0 0 103 101  0.000000e+00  0.000000e+00 -2.137934e+03  2.137934e+03 0.0 0.0 9.0
22  1 1 2   0   0  2.035763e+03  8.504788e+02 -8.660043e+02  2.370149e+03 0.0 0.0 9.0
 2  1 1 2 103   0 -2.035763e+03 -8.504788e+02  1.821000e+03  2.860714e+03 0.0022 0.0 9.0
#pdf 2 21 4.758354e-01 3.289129e-01 5000.0 8.480538e-02 2.149616e-01
</event>
<event>
4 7 1.0 5000.0 7.905138e-03 7.739137e-02
21 -1 0 0 103 101  0.000000e+00  0.000000e+00  1.502158e+03  1.502158e+03 0.0 0.0 9.0
 2 -1 0 0 101   0  0.000000e+00  0.000000e+00 -3.947840e+03  3.947840e+03 0.0 0.0 9.0
22  1 1 2   0   0 -2.527921e+01  2.380677e+03 -6.500531e+02  2.467961e+03 0.0 0.0 9.0
 2  1 1 2 103   0  2.527921e+01 -2.380677e+03 -1.795629e+03  2.982037e+03 0.0022 0.0 9.0
#pdf 21 2 2.311012e-01 6.073600e-01 5000.0 8.446812e-02 5.702949e-04
</event>
<event>
4 7 1.0 5000.0 7.905138e-03 7.739137e-02
 2 -1 0 0 101   0  0.000000e+00  0.000000e+00  3.377744e+03  3.377744e+03 0.0 0.0 9.0
21 -1 0 0 103 101  0.000000e+00  0.000000e+00 -1.828111e+03  1.828111e+03 0.0 0.0 9.0
22  1 1 2   0   0  7.241258e+02  4.311166e+02 -1.673849e+03  1.874030e+03 0.0 0.0 9.0
 2  1 1 2 103   0 -7.241258e+02 -4.311166e+02  3.223482e+03  3.331825e+03 0.0022 0.0 9.0
#pdf 2 21 5.196529e-01 2.812478e-01 5000.0 6.011957e-02 2.726807e-01
</event>
<event>
4 7 1.0 5000.0 7.905138e-03 7.739137e-02
 2 -1 0 0 101   0  0.000000e+00  0.000000e+00  3.041286e+03  3.041286e+03 0.0 0.0 9.0
21 -1 0 0 103 101  0.000000e+00  0.000000e+00 -2.052294e+03  2.052294e+03 0.0 0.0 9.0
22  1 1 2   0   0  2.132956e+03  1.293080e+03  6.388656e+02  2.574821e+03 0.0 0.0 9.0
 2  1 1 2 103   0 -2.132956e+03 -1.293080e+03  3.501270e+02  2.518759e+03 0.0022 0.0 9.0
#pdf 2 21 4.678902e-01 3.157375e-01 5000.0 8.993836e-02 2.302476e-01
</event>
<event>
4 7 1.0 5000.0 7.905138e-03 7.739137e-02
 2 -1 0 0 101   0  0.000000e+00  0.000000e+00  2.451730e+03  2.451730e+03 0.0 0.0 9.0
21 -1 0 0 103 101  0.000000e+00  0.000000e+00 -2.738978e+03  2.738978e+03 0.0 0.0 9.0
 2  1 1 2 103   0  2.181122e+02  8.650244e+02  2.293091e+03  2.460509e+03 0.0022 0.0 9.0
22  1 1 2   0   0 -2.181122e+02 -8.650244e+02 -2.580338e+03  2.730199e+03 0.0 0.0 9.0
#pdf 2 21 3.771893e-01 4.213812e-01 5000.0 1.638843e-01 1.242548e-01
</event>
<event>
4 7 1.0 5000.0 7.905138e-03 7.739137e-02
21 -1 0 0 103 101  0.000000e+00  0.000000e+00  1.642208e+03  1.642208e+03 0.0 0.0 9.0
 2 -1 0 0 101   0  0.000000e+00  0.000000e+00 -3.785851e+03  3.785851e+03 0.0 0.0 9.0
22  1 1 2   0   0  1.133762e+03  1.137203e+03  1.004432e+03  1.894078e+03 0.0 0.0 9.0
 2  1 1 2 103   0 -1.133762e+03 -1.137203e+03 -3.148074e+03  3.533981e+03 0.0022 0.0 9.0
#pdf 21 2 2.526474e-01 5.824386e-01 5000.0 6.458595e-02 8.463223e-04
</event>
<event>
4 7 1.0 5000.0 7.905138e-03 7.739137e-02
21 -1 0 0 103 101  0.000000e+00  0.000000e+00  1.787317e+03  1.787317e+03 0.0 0.0 9.0
 2 -1 0 0 101   0  0.000000e+00  0.000000e+00 -3.452470e+03  3.452470e+03 0.0 0.0 9.0
22  1 1 2   0   0 -9.253227e+02  6.606906e+02  1.496777e+03  1.879648e+03 0.0 0.0 9.0
 2  1 1 2 103   0  9.253227e+02 -6.606906e+02 -3.161930e+03  3.360139e+03 0.0022 0.0 9.0
#pdf 21 2 2.749718e-01 5.311492e-01 5000.0 4.896069e-02 1.819856e-03
</event>
<event>
4 7 1.0 5000.0 7.905138e-03 7.739137e-02
21 -1 0 0 103 101  0.000000e+00  0.000000e+00  2.626209e+03  2.626209e+03 0.0 0.0 9.0
 2 -1 0 0 101   0  0.000000e+00  0.000000e+00 -2.287962e+03  2.287962e+03 0.0 0.0 9.0
22  1 1 2   0   0  8.720325e+02  1.846239e+03  1.528677e+03  2.550665e+03 0.0 0.0 9.0
 2  1 1 2 103   0 -8.720325e+02 -1.846239e+03 -1.190429e+03  2.363506e+03 0.0022 0.0 9.0
#pdf 21 2 4.040322e-01 3.519941e-01 5000.0 9.960576e-03 1.904452e-02
</event>
<event>
4 7 1.0 5000.0 7.905138e-03 7.739137e-02
21 -1 0 0 103 101  0.000000e+00  0.000000e+00  1.876170e+03  1.876170e+03 0.0 0.0 9.0
 2 -1 0 0 101   0  0.000000e+00  0.000000e+00 -3.301608e+03  3.301608e+03 0.0 0.0 9.0
 2  1 1 2 103   0 -8.008845e+02 -2.295199e+03 -1.268053e+03  2.741772e+03 0.0022 0.0 9.0
22  1 1 2   0   0  8.008845e+02  2.295199e+03 -1.573842e+02  2.436006e+03 0.0 0.0 9.0
#pdf 21 2 2.886415e-01 5.079396e-01 5000.0 4.141450e-02 2.524706e-03
</event>
<event>
4 7 1.0 5000.0 7.905138e-03 7.739137e-02
 2 -1 0 0 101   0  0.000000e+00  0.000000e+00  4.639979e+03  4.639979e+03 0.0 0.0 9.0
21 -1 0 0 103 101  0.000000e+00  0.000000e+00 -1.346581e+03  1.346581e+03 0.0 0.0 9.0
 2  1 1 2 103   0 -2.055293e+03 -1.421400e+03  1.575828e+03  2.954292e+03 0.0022 0.0 9.0
22  1 1 2   0   0  2.055293e+03  1.421400e+03  1.717570e+03  3.032269e+03 0.0 0.0 9.0
#pdf 2 21 7.138430e-01 2.071663e-01 5000.0 7.379240e-03 3.721522e-01
</event>
<event>
4 7 1.0 5000.0 7.905138e-03 7.739137e-02
21 -1 0 0 103 101  0.000000e+00  0.000000e+00  1.916957e+03  1.916957e+03 0.0 0.0 9.0
 2 -1 0 0 101   0  0.000000e+00  0.000000e+00 -3.424854e+03  3.424854e+03 0.0 0.0 9.0
 2  1 1 2 103   0 -8.649644e+02  2.169271e+03 -1.852869e+03  2.981111e+03 0.0022 0.0 9.0
22  1 1 2   0   0  8.649644e+02 -2.169271e+03  3.449718e+02  2.360700e+03 0.0 0.0 9.0
#pdf 21 2 2.949164e-01 5.269006e-01 5000.0 3.837242e-02 1.933519e-03
</event>
<event>
4 7 1.0 5000.0 7.905138e-03 7.739137e-02
21 -1 0 0 103 101  0.000000e+00  0.000000e+00  2.175143e+03  2.175143e+03 0.0 0.0 9.0
 2 -1 0 0 101   0  0.000000e+00  0.000000e+00 -2.905602e+03  2.905602e+03 0.0 0.0 9.0
22  1 1 2   0   0 -9.993245e+02  1.034312e+03 -2.448829e+03  2.839932e+03 0.0 0.0 9.0
 2  1 1 2 103   0  9.993245e+02 -1.034312e+03  1.718370e+03  2.240814e+03 0.0022 0.0 9.0
#pdf 21 2 3.346375e-01 4.470158e-01 5000.0 2.356639e-02 5.732644e-03
</event>
<event>
4 7 1.0 5000.0 7.905138e-03 7.739137e-02
21 -1 0 0 103 101  0.000000e+00  0.000000e+00  2.032198e+03  2.032198e+03 0.0 0.0 9.0
 2 -1 0 0 101   0  0.000000e+00  0.000000e+00 -3.159603e+03  3.159603e+03 0.0 0.0 9.0
22  1 1 2   0   0  1.979810e+03 -1.233639e+03 -1.577555e+03  2.816060e+03 0.0 0.0 9.0
 2  1 1 2 103   0 -1.979810e+03  1.233639e+03  4.501504e+02  2.375742e+03 0.0022 0.0 9.0
#pdf 21 2 3.126459e-01 4.860928e-01 5000.0 3.086829e-02 3.408541e-03
</event>
<event>
4 7 1.0 5000.0 7.905138e-03 7.739137e-02
 2 -1 0 0 101   0  0.000000e+00  0.000000e+00  2.916253e+03  2.916253e+03 0.0 0.0 9.0
21 -1 0 0 103 101  0.000000e+00  0.000000e+00 -2.197093e+03  2.197093e+03 0.0 0.0 9.0
 2  1 1 2 103   0 -1.043053e+03  1.665081e+03  1.971480e+03  2.783377e+03 0.0022 0.0 9.0
22  1 1 2   0   0  1.043053e+03 -1.665081e+03 -1.252320e+03  2.329970e+03 0.0 0.0 9.0
#pdf 2 21 4.486544e-01 3.380144e-01 5000.0 1.032261e-01 2.047297e-01
</event>
<event>
4 7 1.0 5000.0 7.905138e-03 7.739137e-02
 2 -1 0 0 101   0  0.000000e+00  0.000000e+00  2.698169e+03  2.698169e+03 0.0 0.0 9.0
21 -1 0 0 103 101  0.000000e+00  0.000000e+00 -2.276634e+03  2.276634e+03 0.0 0.0 9.0
 2  1 1 2 103   0  5.764940e+02  2.149855e+03  1.304896e+03  2.580111e+03 0.0022 0.0 9.0
22  1 1 2   0   0 -5.764940e+02 -2.149855e+03 -8.833600e+02  2.394691e+03 0.0 0.0 9.0
#pdf 2 21 4.151029e-01 3.502513e-01 5000.0 1.294682e-01 1.913997e-01
</event>
<event>
4 7 1.0 5000.0 7.905138e-03 7.739137e-02
 2 -1 0 0 101   0  0.000000e+00  0.000000e+00  2.626173e+03  2.626173e+03 0.0 0.0 9.0
21 -1 0 0 103 101  0.000000e+00  0.000000e+00 -2.245183e+03  2.245183e+03 0.0 0.0 9.0
22  1 1 2   0   0  5.992425e+02 -3.953204e+02 -2.136303e+03  2.253699e+03 0.0 0.0 9.0
 2  1 1 2 103   0 -5.992425e+02  3.953204e+02  2.517292e+03  2.617657e+03 0.0022 0.0 9.0
#pdf 2 21 4.040266e-01 3.454128e-01 5000.0 1.390003e-01 1.966115e-01
</event>
<event>
4 7 1.0 5000.0 7.905138e-03 7.739137e-02
 2 -1 0 0 101   0  0.000000e+00  0.000000e+00  5.431453e+03  5.431453e+03 0.0 0.0 9.0
21 -1 0 0 103 101  0.000000e+00  0.000000e+00 -1.109051e+03  1.109051e+03 0.0 0.0 9.0
 2  1 1 2 103   0  8.793180e+02 -1.321680e+02 -8.868803e+02  1.255876e+03 0.0022 0.0 9.0
22  1 1 2   0   0 -8.793180e+02  1.321680e+02  5.209282e+03  5.284628e+03 0.0 0.0 9.0
#pdf 2 21 8.356082e-01 1.706232e-01 5000.0 7.639808e-04 4.223204e-01
</event>
<event>
4 7 1.0 5000.0 7.905138e-03 7.739137e-02
 2 -1 0 0 101   0  0.000000e+00  0.000000e+00  3.333915e+03  3.333915e+03 0.0 0.0 9.0
21 -1 0 0 103 101  0.000000e+00  0.000000e+00 -1.850644e+03  1.850644e+03 0.0 0.0 9.0
 2  1 1 2 103   0 -2.370310e+02  2.295917e+03  1.699537e+03  2.866329e+03 0.0022 0.0 9.0
22  1 1 2   0   0  2.370310e+02 -2.295917e+03 -2.162655e+02  2.318230e+03 0.0 0.0 9.0
#pdf 2 21 5.129100e-01 2.847145e-01 5000.0 6.353470e-02 2.682736e-01
</event>
<event>
4 7 1.0 5000.0 7.905138e-03 7.739137e-02
21 -1 0 0 103 101  0.000000e+00  0.000000e+00  2.911855e+03  2.911855e+03 0.0 0.0 9.0
 2 -1 0 0 101   0  0.000000e+00  0.000000e+00 -2.121539e+03  2.121539e+03 0.0 0.0 9.0
 2  1 1 2 103   0  4.699130e+02  2.205770e+03 -6.626517e+02  2.350605e+03 0.0022 0.0 9.0
22  1 1 2   0   0 -4.699130e+02 -2.205770e+03  1.452968e+03  2.682789e+03 0.0 0.0 9.0
#pdf 21 2 4.479778e-01 3.263906e-01 5000.0 5.661946e-03 2.607254e-02
</event>
<event>
4 7 1.0 5000.0 7.905138e-03 7.739137e-02
21 -1 0 0 103 101  0.000000e+00  0.000000e+00  2.418605e+03  2.418605e+03 0.0 0.0 9.0
 2 -1 0 0 101   0  0.000000e+00  0.000000e+00 -2.595197e+03  2.595197e+03 0.0 0.0 9.0
22  1 1 2   0   0  1.585573e+03 -1.334925e+03  1.319947e+03  2.457301e+03 0.0 0.0 9.0
 2  1 1 2 103   0 -1.585573e+03  1.334925e+03 -1.496540e+03  2.556501e+03 0.0022 0.0 9.0
#pdf 21 2 3.720931e-01 3.992611e-01 5000.0 1.484900e-02 1.057762e-02
</event>
<event>
4 7 1.0 5000.0 7.905138e-03 7.739137e-02
21 -1 0 0 103 101  0.000000e+00  0.000000e+00  3.453777e+03  3.453777e+03 0.0 0.0 9.0
 2 -1 0 0 101   0  0.000000e+00  0.000000e+00 -1.822960e+03  1.822960e+03 0.0 0.0 9.0
22  1 1 2   0   0 -1.966952e+03  2.692683e+02  2.428900e+03  3.137031e+03 0.0 0.0 9.0
 2  1 1 2 103   0  1.966952e+03 -2.692683e+02 -7.980840e+02  2.139706e+03 0.0022 0.0 9.0
#pdf 21 2 5.313502e-01 2.804554e-01 5000.0 1.814605e-03 4.576720e-02
</event>
<event>
4 7 1.0 5000.0 7.905138e-03 7.739137e-02
 2 -1 0 0 101   0  0.000000e+00  0.000000e+00  3.277465e+03  3.277465e+03 0.0 0.0 9.0
21 -1 0 0 103 101  0.000000e+00  0.000000e+00 -1.867865e+03  1.867865e+03 0.0 0.0 9.0
 2  1 1 2 103   0  2.844682e+02  2.177974e+03  1.889131e+03  2.897121e+03 0.0022 0.0 9.0
22  1 1 2   0   0 -2.844682e+02 -2.177974e+03 -4.795311e+02  2.248209e+03 0.0 0.0 9.0
#pdf 2 21 5.042254e-01 2.873638e-01 5000.0 6.813407e-02 2.649194e-01
</event>
<event>
4 7 1.0 5000.0 7.905138e-03 7.739137e-02
 2 -1 0 0 101   0  0.000000e+00  0.000000e+00  3.245718e+03  3.245718e+03 0.0 0.0 9.0
21 -1 0 0 103 101  0.000000e+00  0.000000e+00 -1.919757e+03  1.919757e+03 0.0 0.0 9.0
22  1 1 2   0   0  4.139849e+02  1.593852e+03 -1.278024e+03  2.084488e+03 0.0 0.0 9.0
 2  1 1 2 103   0 -4.139849e+02 -1.593852e+03  2.603985e+03  3.080987e+03 0.0022 0.0 9.0
#pdf 2 21 4.993413e-01 2.953473e-01 5000.0 7.082113e-02 2.549236e-01
</event>
<event>
4 7 1.0 5000.0 7.905138e-03 7.739137e-02
21 -1 0 0 103 101  0.000000e+00  0.000000e+00  2.819345e+03  2.819345e+03 0.0 0.0 9.0
 2 -1 0 0 101   0  0.000000e+00  0.000000e+00 -2.078848e+03  2.078848e+03 0.0 0.0 9.0
 2  1 1 2 103   0 -2.367057e+03  1.590954e+02 -1.177678e+02  2.375319e+03 0.0022 0.0 9.0
22  1 1 2   0   0  2.367057e+03 -1.590954e+02  8.582646e+02  2.522873e+03 0.0 0.0 9.0
#pdf 21 2 4.337454e-01 3.198228e-01 5000.0 6.816970e-03 2.825419e-02
</event>
<event>
4 7 1.0 5000.0 7.905138e-03 7.739137e-02
 2 -1 0 0 101   0  0.000000e+00  0.000000e+00  1.685313e+03  1.685313e+03 0.0 0.0 9.0
21 -1 0 0 103 101  0.000000e+00  0.000000e+00 -3.740460e+03  3.740460e+03 0.0 0.0 9.0
22  1 1 2   0   0  1.197005e+03  2.187825e+03 -1.341568e+03  2.831820e+03 0.0 0.0 9.0
 2  1 1 2 103   0 -1.197005e+03 -2.187825e+03 -7.135782e+02  2.593953e+03 0.0022 0.0 9.0
#pdf 2 21 2.592790e-01 5.754554e-01 5000.0 3.012544e-01 3.669088e-02
</event>
<event>
4 7 1.0 5000.0 7.905138e-03 7.739137e-02
 2 -1 0 0 101   0  0.000000e+00  0.000000e+00  2.751664e+03  2.751664e+03 0.0 0.0 9.0
21 -1 0 0 103 101  0.000000e+00  0.000000e+00 -2.232722e+03  2.232722e+03 0.0 0.0 9.0
 2  1 1 2 103   0 -1.168382e+03 -8.600814e+02  2.280140e+03  2.702572e+03 0.0022 0.0 9.0
22  1 1 2   0   0  1.168382e+03  8.600814e+02 -1.761198e+03  2.281814e+03 0.0 0.0 9.0
#pdf 2 21 4.233330e-01 3.434957e-01 5000.0 1.226629e-01 1.986984e-01
</event>
<event>
4 7 1.0 5000.0 7.905138e-03 7.739137e-02
 2 -1 0 0 101   0  0.000000e+00  0.000000e+00  4.247410e+03  4.247410e+03 0.0 0.0 9.0
21 -1 0 0 103 101  0.000000e+00  0.000000e+00 -1.487281e+03  1.487281e+03 0.0 0.0 9.0
22  1 1 2   0   0  1.793566e+03  8.116269e+02 -4.025093e+02  2.009386e+03 0.0 0.0 9.0
 2  1 1 2 103   0 -1.793566e+03 -8.116269e+02  3.162639e+03  3.725306e+03 0.0022 0.0 9.0
#pdf 2 21 6.534478e-01 2.288124e-01 5000.0 1.613431e-02 3.423565e-01
</event>
<event>
4 7 1.0 5000.0 7.905138e-03 7.739137e-02
21 -1 0 0 103 101  0.000000e+00  0.000000e+00  2.268052e+03  2.268052e+03 0.0 0.0 9.0
 2 -1 0 0 101   0  0.000000e+00  0.000000e+00 -2.703243e+03  2.703243e+03 0.0 0.0 9.0
22  1 1 2   0   0 -1.522127e+03 -9.879378e+02  1.473594e+03  2.337599e+03 0.0 0.0 9.0
 2  1 1 2 103   0  1.522127e+03  9.879378e+02 -1.908786e+03  2.633696e+03 0.0022 0.0 9.0
#pdf 21 2 3.489311e-01 4.158836e-01 5000.0 1.977826e-02 8.567857e-03
</event>
<event>
4 7 1.0 5000.0 7.905138e-03 7.739137e-02
 2 -1 0 0 101   0  0.000000e+00  0.000000e+00  1.740104e+03  1.740104e+03 0.0 0.0 9.0
21 -1 0 0 103 101  0.000000e+00  0.000000e+00 -3.425876e+03  3.425876e+03 0.0 0.0 9.0
 2  1 1 2 103   0 -1.165012e+03  9.909085e+02 -2.856319e+03  3.240017e+03 0.0022 0.0 9.0
22  1 1 2   0   0  1.165012e+03 -9.909085e+02  1.170547e+03  1.925963e+03 0.0 0.0 9.0
#pdf 2 21 2.677083e-01 5.270578e-01 5000.0 2.901796e-01 5.652741e-02
</event>
<event>
4 7 1.0 5000.0 7.905138e-03 7.739137e-02
21 -1 0 0 103 101  0.000000e+00  0.000000e+00  1.910885e+03  1.910885e+03 0.0 0.0 9.0
 2 -1 0 0 101   0  0.000000e+00  0.000000e+00 -3.228971e+03  3.228971e+03 0.0 0.0 9.0
22  1 1 2   0   0  1.274953e+03  1.997157e+03  1.124442e+02  2.372085e+03 0.0 0.0 9.0
 2  1 1 2 103   0 -1.274953e+03 -1.997157e+03 -1.430531e+03  2.767772e+03 0.0022 0.0 9.0
#pdf 21 2 2.939823e-01 4.967648e-01 5000.0 3.881434e-02 2.947150e-03
</event>
<event>
4 7 1.0 5000.0 7.905138e-03 7.739137e-02
21 -1 0 0 103 101  0.000000e+00  0.000000e+00  3.221129e+03  3.221129e+03 0.0 0.0 9.0
 2 -1 0 0 101   0  0.000000e+00  0.000000e+00 -1.974178e+03  1.974178e+03 0.0 0.0 9.0
22  1 1 2   0   0 -1.039677e+03 -4.540991e+02 -1.696436e+03  2.040840e+03 0.0 0.0 9.0
 2  1 1 2 103   0  1.039677e+03  4.540991e+02  2.943387e+03  3.154467e+03 0.0022 0.0 9.0
#pdf 21 2 4.955584e-01 3.037197e-01 5000.0 2.996375e-03 3.444130e-02
</event>
<event>
4 7 1.0 5000.0 7.905138e-03 7.739137e-02
21 -1 0 0 103 101  0.000000e+00  0.000000e+00  1.750160e+03  1.750160e+03 0.0 0.0 9.0
 2 -1 0 0 101   0  0.000000e+00  0.000000e+00 -3.515533e+03  3.515533e+03 0.0 0.0 9.0
 2  1 1 2 103   0 -1.547450e+03  1.125715e+03  7.925262e+02  2.071216e+03 0.0022 0.0 9.0
22  1 1 2   0   0  1.547450e+03 -1.125715e+03 -2.557899e+03  3.194477e+03 0.0 0.0 9.0
#pdf 21 2 2.692554e-01 5.408512e-01 5000.0 5.252457e-02 1.580219e-03
</event>
<event>
4 7 1.0 5000.0 7.905138e-03 7.739137e-02
 2 -1 0 0 101   0  0.000000e+00  0.000000e+00  3.790157e+03  3.790157e+03 0.0 0.0 9.0
21 -1 0 0 103 101  0.000000e+00  0.000000e+00 -1.305404e+03  1.305404e+03 0.0 0.0 9.0
 2  1 1 2 103   0  1.717745e+03 -1.347557e+03  1.729853e+03  2.785489e+03 0.0022 0.0 9.0
22  1 1 2   0   0 -1.717745e+03  1.347557e+03  7.549000e+02  2.310072e+03 0.0 0.0 9.0
#pdf 2 21 5.831010e-01 2.008314e-01 5000.0 3.410272e-02 3.808802e-01
</event>
<event>
4 7 1.0 5000.0 7.905138e-03 7.739137e-02
 2 -1 0 0 101   0  0.000000e+00  0.000000e+00  2.619887e+03  2.619887e+03 0.0 0.0 9.0
21 -1 0 0 103 101  0.000000e+00  0.000000e+00 -2.474588e+03  2.474588e+03 0.0 0.0 9.0
22  1 1 2   0   0 -7.930678e+02  2.405459e+03 -1.881325e+02  2.539800e+03 0.0 0.0 9.0
 2  1 1 2 103   0  7.930678e+02 -2.405459e+03  3.334315e+02  2.554676e+03 0.0022 0.0 9.0
#pdf 2 21 4.030596e-01 3.807059e-01 5000.0 1.398538e-01 1.604823e-01
</event>
<event>
4 7 1.0 5000.0 7.905138e-03 7.739137e-02
 2 -1 0 0 101   0  0.000000e+00  0.000000e+00  3.641356e+03  3.641356e+03 0.0 0.0 9.0
21 -1 0 0 103 101  0.000000e+00  0.000000e+00 -1.745912e+03  1.745912e+03 0.0 0.0 9.0
 2  1 1 2 103   0  1.307609e+03 -9.656587e+02 -1.111410e+03  1.969154e+03 0.0022 0.0 9.0
22  1 1 2   0   0 -1.307609e+03  9.656587e+02  3.006853e+03  3.418114e+03 0.0 0.0 9.0
#pdf 2 21 5.602086e-01 2.686019e-01 5000.0 4.229485e-02 2.890117e-01
</event>
<event>
4 7 1.0 5000.0 7.905138e-03 7.739137e-02
21 -1 0 0 103 101  0.000000e+00  0.000000e+00  3.757659e+03  3.757659e+03 0.0 0.0 9.0
 2 -1 0 0 101   0  0.000000e+00  0.000000e+00 -1.608515e+03  1.608515e+03 0.0 0.0 9.0
22  1 1 2   0   0 -1.480462e+03 -4.448025e+02 -1.011769e+03  1.847511e+03 0.0 0.0 9.0
 2  1 1 2 103   0  1.480462e+03  4.448025e+02  3.160913e+03  3.518663e+03 0.0022 0.0 9.0
#pdf 21 2 5.781013e-01 2.474638e-01 5000.0 9.048476e-04 6.883706e-02
</event>
<event>
4 7 1.0 5000.0 7.905138e-03 7.739137e-02
21 -1 0 0 103 101  0.000000e+00  0.000000e+00  2.648268e+03  2.648268e+03 0.0 0.0 9.0
 2 -1 0 0 101   0  0.000000e+00  0.000000e+00 -2.376990e+03  2.376990e+03 0.0 0.0 9.0
22  1 1 2   0   0  9.941302e+02 -2.226737e+03  7.266293e+02  2.544532e+03 0.0 0.0 9.0
 2  1 1 2 103   0 -9.941302e+02  2.226737e+03 -4.553522e+02  2.480726e+03 0.0022 0.0 9.0
#pdf 21 2 4.074258e-01 3.656908e-01 5000.0 9.541480e-03 1.608198e-02
</event>
<event>
4 7 1.0 5000.0 7.905138e-03 7.739137e-02
 2 -1 0 0 101   0  0.000000e+00  0.000000e+00  1.426918e+03  1.426918e+03 0.0 0.0 9.0
21 -1 0 0 103 101  0.000000e+00  0.000000e+00 -4.378119e+03  4.378119e+03 0.0 0.0 9.0
 2  1 1 2 103   0 -5.474272e+02  1.115631e+03 -3.993944e+03  4.182810e+03 0.0022 0.0 9.0
22  1 1 2   0   0  5.474272e+02 -1.115631e+03  1.042743e+03  1.622227e+03 0.0 0.0 9.0
#pdf 2 21 2.195259e-01 6.735568e-01 5000.0 3.550622e-01 1.264016e-02
</event>
<event>
4 7 1.0 5000.0 7.905138e-03 7.739137e-02
 2 -1 0 0 101   0  0.000000e+00  0.000000e+00  2.366049e+03  2.366049e+03 0.0 0.0 9.0
21 -1 0 0 103 101  0.000000e+00  0.000000e+00 -2.666645e+03  2.666645e+03 0.0 0.0 9.0
 2  1 1 2 103   0  1.336568e+03  1.535079e+03  1.324248e+03  2.428274e+03 0.0022 0.0 9.0
22  1 1 2   0   0 -1.336568e+03 -1.535079e+03 -1.624845e+03  2.604420e+03 0.0 0.0 9.0
#pdf 2 21 3.640075e-01 4.102531e-01 5000.0 1.770285e-01 1.335891e-01
</event>
<event>
4 7 1.0 5000.0 7.905138e-03 7.739137e-02
 2 -1 0 0 101   0  0.000000e+00  0.000000e+00  3.057841e+03  3.057841e+03 0.0 0.0 9.0
21 -1 0 0 103 101  0.000000e+00  0.000000e+00 -1.959468e+03  1.959468e+03 0.0 0.0 9.0
22  1 1 2   0   0  1.090475e+03  1.933467e+03 -5.081143e+02  2.277193e+03 0.0 0.0 9.0
 2  1 1 2 103   0 -1.090475e+03 -1.933467e+03  1.606488e+03  2.740115e+03 0.0022 0.0 9.0
#pdf 2 21 4.704371e-01 3.014566e-01 5000.0 8.827118e-02 2.474148e-01
</event>
<event>
4 7 1.0 5000.0 7.905138e-03 7.739137e-02
 2 -1 0 0 101   0  0.000000e+00  0.000000e+00  3.207791e+03  3.207791e+03 0.0 0.0 9.0
21 -1 0 0 103 101  0.000000e+00  0.000000e+00 -1.942386e+03  1.942386e+03 0.0 0.0 9.0
 2  1 1 2 103   0  7.475147e+02  1.798448e+03  2.243349e+03  2.970827e+03 0.0022 0.0 9.0
22  1 1 2   0   0 -7.475147e+02 -1.798448e+03 -9.779434e+02  2.179350e+03 0.0 0.0 9.0
#pdf 2 21 4.935064e-01 2.988285e-01 5000.0 7.412862e-02 2.506343e-01
</event>
<event>
4 7 1.0 5000.0 7.905138e-03 7.739137e-02
 2 -1 0 0 101   0  0.000000e+00  0.000000e+00  1.669028e+03  1.669028e+03 0.0 0.0 9.0
21 -1 0 0 103 101  0.000000e+00  0.000000e+00 -3.741731e+03  3.741731e+03 0.0 0.0 9.0
 2  1 1 2 103   0  2.413362e+03  3.821820e+02 -1.603725e+03  2.922724e+03 0.0022 0.0 9.0
22  1 1 2   0   0 -2.413362e+03 -3.821820e+02 -4.689789e+02  2.488035e+03 0.0 0.0 9.0
#pdf 2 21 2.567735e-01 5.756510e-01 5000.0 3.045663e-01 3.662291e-02
</event>
<event>
4 7 1.0 5000.0 7.905138e-03 7.739137e-02
21 -1 0 0 103 101  0.000000e+00  0.000000e+00  2.375704e+03  2.375704e+03 0.0 0.0 9.0
 2 -1 0 0 101   0  0.000000e+00  0.000000e+00 -2.229587e+03  2.229587e+03 0.0 0.0 9.0
 2  1 1 2 103   0 -3.270265e+01 -2.297800e+03 -5.304997e+01  2.298645e+03 0.0022 0.0 9.0
22  1 1 2   0   0  3.270265e+01  2.297800e+03  1.991674e+02  2.306647e+03 0.0 0.0 9.0
#pdf 21 2 3.654930e-01 3.430134e-01 5000.0 1.612164e-02 2.126448e-02
</event>
<event>
4 7 1.0 5000.0 7.905138e-03 7.739137e-02
21 -1 0 0 103 101  0.000000e+00  0.000000e+00  4.167367e+03  4.167367e+03 0.0 0.0 9.0
 2 -1 0 0 101   0  0.000000e+00  0.000000e+00 -1.266020e+03  1.266020e+03 0.0 0.0 9.0
22  1 1 2   0   0 -8.460661e+02  2.134374e+03  1.530831e+03  2.759497e+03 0.0 0.0 9.0
 2  1 1 2 103   0  8.460661e+02 -2.134374e+03  1.370515e+03  2.673891e+03 0.0022 0.0 9.0
#pdf 21 2 6.411334e-01 1.947724e-01 5000.0 3.236322e-04 1.346617e-01
</event>
<event>
4 7 1.0 5000.0 7.905138e-03 7.739137e-02
 2 -1 0 0 101   0  0.000000e+00  0.000000e+00  2.799359e+03  2.799359e+03 0.0 0.0 9.0
21 -1 0 0 103 101  0.000000e+00  0.000000e+00 -2.243957e+03  2.243957e+03 0.0 0.0 9.0
 2  1 1 2 103   0  6.708425e+02 -1.422087e+03 -1.685980e+03  2.305405e+03 0.0022 0.0 9.0
22  1 1 2   0   0 -6.708425e+02  1.422087e+03  2.241382e+03  2.737911e+03 0.0 0.0 9.0
#pdf 2 21 4.306705e-01 3.452241e-01 5000.0 1.168060e-01 1.968164e-01
</event>
<event>
4 7 1.0 5000.0 7.905138e-03 7.739137e-02
21 -1 0 0 103 101  0.000000e+00  0.000000e+00  2.560078e+03  2.560078e+03 0.0 0.0 9.0
 2 -1 0 0 101   0  0.000000e+00  0.000000e+00 -2.245874e+03  2.245874e+03 0.0 0.0 9.0
22  1 1 2   0   0  1.594093e+03  6.034429e+01  1.951146e+03  2.520267e+03 0.0 0.0 9.0
 2  1 1 2 103   0 -1.594093e+03 -6.034429e+01 -1.636942e+03  2.285685e+03 0.0022 0.0 9.0
#pdf 21 2 3.938582e-01 3.455190e-01 5000.0 1.132061e-02 2.062300e-02
</event>
<event>
4 7 1.0 5000.0 7.905138e-03 7.739137e-02
21 -1 0 0 103 101  0.000000e+00  0.000000e+00  2.371418e+03  2.371418e+03 0.0 0.0 9.0
 2 -1 0 0 101   0  0.000000e+00  0.000000e+00 -2.653928e+03  2.653928e+03 0.0 0.0 9.0
 2  1 1 2 103   0 -5.032303e+01 -6.662623e+02 -2.563170e+03  2.648826e+03 0.0022 0.0 9.0
22  1 1 2   0   0  5.032303e+01  6.662623e+02  2.280660e+03  2.376520e+03 0.0 0.0 9.0
#pdf 21 2 3.648335e-01 4.082967e-01 5000.0 1.625418e-02 9.436364e-03
</event>
<event>
4 7 1.0 5000.0 7.905138e-03 7.739137e-02
21 -1 0 0 103 101  0.000000e+00  0.000000e+00  4.237251e+03  4.237251e+03 0.0 0.0 9.0
 2 -1 0 0 101   0  0.000000e+00  0.000000e+00 -1.659937e+03  1.659937e+03 0.0 0.0 9.0
 2  1 1 2 103   0  7.098500e+02  2.555295e+03  1.302352e+03  2.954580e+03 0.0022 0.0 9.0
22  1 1 2   0   0 -7.098500e+02 -2.555295e+03  1.274961e+03  2.942609e+03 0.0 0.0 9.0
#pdf 21 2 6.518848e-01 2.553750e-01 5000.0 2.680078e-04 6.242405e-02
</event>
<event>
4 7 1.0 5000.0 7.905138e-03 7.739137e-02
21 -1 0 0 103 101  0.000000e+00  0.000000e+00  3.159643e+03  3.159643e+03 0.0 0.0 9.0
 2 -1 0 0 101   0  0.000000e+00  0.000000e+00 -1.714686e+03  1.714686e+03 0.0 0.0 9.0
22  1 1 2   0   0 -1.151758e+03  2.019929e+03  8.329736e+02  2.469920e+03 0.0 0.0 9.0
 2  1 1 2 103   0  1.151758e+03 -2.019929e+03  6.119827e+02  2.404409e+03 0.0022 0.0 9.0
#pdf 21 2 4.860989e-01 2.637979e-01 5000.0 3.408261e-03 5.618507e-02
</event>
<event>
4 7 1.0 5000.0 7.905138e-03 7.739137e-02
 2 -1 0 0 101   0  0.000000e+00  0.000000e+00  1.731737e+03  1.731737e+03 0.0 0.0 9.0
21 -1 0 0 103 101  0.000000e+00  0.000000e+00 -3.659998e+03  3.659998e+03 0.0 0.0 9.0
 2  1 1 2 103   0  9.813790e+02 -2.264986e+03 -1.494039e+03  2.885380e+03 0.0022 0.0 9.0
22  1 1 2   0   0 -9.813790e+02  2.264986e+03 -4.342229e+02  2.506355e+03 0.0 0.0 9.0
#pdf 2 21 2.664210e-01 5.630766e-01 5000.0 2.918644e-01 4.119702e-02
</event>
<event>
4 7 1.0 5000.0 7.905138e-03 7.739137e-02
21 -1 0 0 103 101  0.000000e+00  0.000000e+00  3.904562e+03  3.904562e+03 0.0 0.0 9.0
 2 -1 0 0 101   0  0.000000e+00  0.000000e+00 -1.612910e+03  1.612910e+03 0.0 0.0 9.0
 2  1 1 2 103   0 -2.240291e+03 -4.768970e+02  2.273015e+03  3.226908e+03 0.0022 0.0 9.0
22  1 1 2   0   0  2.240291e+03  4.768970e+02  1.863650e+01  2.290564e+03 0.0 0.0 9.0
#pdf 21 2 6.007018e-01 2.481400e-01 5000.0 6.347403e-04 6.827366e-02
</event>
<event>
4 7 1.0 5000.0 7.905138e-03 7.739137e-02
 2 -1 0 0 101   0  0.000000e+00  0.000000e+00  1.317154e+03  1.317154e+03 0.0 0.0 9.0
21 -1 0 0 103 101  0.000000e+00  0.000000e+00 -4.809850e+03  4.809850e+03 0.0 0.0 9.0
 2  1 1 2 103   0 -2.513361e+03  1.248544e+01 -1.582265e+03  2.969966e+03 0.0022 0.0 9.0
22  1 1 2   0   0  2.513361e+03 -1.248544e+01 -1.910431e+03  3.157037e+03 0.0 0.0 9.0
#pdf 2 21 2.026391e-01 7.399769e-01 5000.0 3.783945e-01 4.984322e-03
</event>
<event>
4 7 1.0 5000.0 7.905138e-03 7.739137e-02
21 -1 0 0 103 101  0.000000e+00  0.000000e+00  2.360477e+03  2.360477e+03 0.0 0.0 9.0
 2 -1 0 0 101   0  0.000000e+00  0.000000e+00 -2.830821e+03  2.830821e+03 0.0 0.0 9.0
 2  1 1 2 103   0 -1.312255e+03  2.188299e+03  1.805676e+02  2.557982e+03 0.0022 0.0 9.0
22  1 1 2   0   0  1.312255e+03 -2.188299e+03 -6.509119e+02  2.633316e+03 0.0 0.0 9.0
#pdf 21 2 3.631503e-01 4.355109e-01 5000.0 1.659529e-02 6.664936e-03
</event>
<event>
4 7 1.0 5000.0 7.905138e-03 7.739137e-02
 2 -1 0 0 101   0  0.000000e+00  0.000000e+00  3.508785e+03  3.508785e+03 0.0 0.0 9.0
21 -1 0 0 103 101  0.000000e+00  0.000000e+00 -1.891626e+03  1.891626e+03 0.0 0.0 9.0
22  1 1 2   0   0 -1.864927e+03 -1.499197e+03  1.809366e+03  2.999892e+03 0.0 0.0 9.0
 2  1 1 2 103   0  1.864927e+03  1.499197e+03 -1.922082e+02  2.400519e+03 0.0022 0.0 9.0
#pdf 2 21 5.398130e-01 2.910194e-01 5000.0 5.068493e-02 2.603184e-01
</event>
<event>
4 7 1.0 5000.0 7.905138e-03 7.739137e-02
 2 -1 0 0 101   0  0.000000e+00  0.000000e+00  1.900478e+03  1.900478e+03 0.0 0.0 9.0
21 -1 0 0 103 101  0.000000e+00  0.000000e+00 -3.334047e+03  3.334047e+03 0.0 0.0 9.0
 2  1 1 2 103   0 -1.442270e+03 -2.225129e+01  1.428144e+03  2.029836e+03 0.0022 0.0 9.0
22  1 1 2   0   0  1.442270e+03  2.225129e+01 -2.861712e+03  3.204689e+03 0.0 0.0 9.0
#pdf 2 21 2.923813e-01 5.129303e-01 5000.0 2.586141e-01 6.352425e-02
</event>
<event>
4 7 1.0 5000.0 7.905138e-03 7.739137e-02
21 -1 0 0 103 101  0.000000e+00  0.000000e+00  2.505868e+03  2.505868e+03 0.0 0.0 9.0
 2 -1 0 0 101   0  0.000000e+00  0.000000e+00 -2.446593e+03  2.446593e+03 0.0 0.0 9.0
 2  1 1 2 103   0  1.921976e+03  1.036262e+03  1.197201e+03  2.490205e+03 0.0022 0.0 9.0
22  1 1 2   0   0 -1.921976e+03 -1.036262e+03 -1.137925e+03  2.462256e+03 0.0 0.0 9.0
#pdf 21 2 3.855182e-01 3.763989e-01 5000.0 1.257443e-02 1.409047e-02
</event>
<event>
4 7 1.0 5000.0 7.905138e-03 7.739137e-02
 2 -1 0 0 101   0  0.000000e+00  0.000000e+00  1.820504e+03  1.820504e+03 0.0 0.0 9.0
21 -1 0 0 103 101  0.000000e+00  0.000000e+00 -2.416529e+03  2.416529e+03 0.0 0.0 9.0
22  1 1 2   0   0  1.684324e+03  1.190300e+03 -6.833449e+02  2.172722e+03 0.0 0.0 9.0
 2  1 1 2 103   0 -1.684324e+03 -1.190300e+03  8.732008e+01  2.064312e+03 0.0022 0.0 9.0
#pdf 2 21 2.800776e-01 3.717737e-01 5000.0 2.741739e-01 1.691996e-01
</event>
<event>
4 7 1.0 5000.0 7.905138e-03 7.739137e-02
21 -1 0 0 103 101  0.000000e+00  0.000000e+00  1.600795e+03  1.600795e+03 0.0 0.0 9.0
 2 -1 0 0 101   0  0.000000e+00  0.000000e+00 -3.942346e+03  3.942346e+03 0.0 0.0 9.0
 2  1 1 2 103   0  1.609397e+02  1.356446e+03  1.155272e+03  1.788994e+03 0.0022 0.0 9.0
22  1 1 2   0   0 -1.609397e+02 -1.356446e+03 -3.496823e+03  3.754147e+03 0.0 0.0 9.0
#pdf 21 2 2.462761e-01 6.065148e-01 5000.0 6.983191e-02 5.781805e-04
</event>
<event>
4 7 1.0 5000.0 7.905138e-03 7.739137e-02
 2 -1 0 0 101   0  0.000000e+00  0.000000e+00  1.313493e+03  1.313493e+03 0.0 0.0 9.0
21 -1 0 0 103 101  0.000000e+00  0.000000e+00 -4.747494e+03  4.747494e+03 0.0 0.0 9.0
 2  1 1 2 103   0  2.835509e+02  2.443955e+03 -1.198590e+03  2.736775e+03 0.0022 0.0 9.0
22  1 1 2   0   0 -2.835509e+02 -2.443955e+03 -2.235412e+03  3.324212e+03 0.0 0.0 9.0
#pdf 2 21 2.020758e-01 7.303836e-01 5000.0 3.791687e-01 5.783099e-03
</event>
<event>
4 7 1.0 5000.0 7.905138e-03 7.739137e-02
21 -1 0 0 103 101  0.000000e+00  0.000000e+00  3.489855e+03  3.489855e+03 0.0 0.0 9.0
 2 -1 0 0 101   0  0.000000e+00  0.000000e+00 -1.826664e+03  1.826664e+03 0.0 0.0 9.0
 2  1 1 2 103   0  7.238957e+02 -1.270373e+03  2.998748e+03  3.336220e+03 0.0022 0.0 9.0
22  1 1 2   0   0 -7.238957e+02  1.270373e+03 -1.335557e+03  1.980299e+03 0.0 0.0 9.0
#pdf 21 2 5.369008e-01 2.810252e-01 5000.0 1.673562e-03 4.544676e-02
</event>
<event>
4 7 1.0 5000.0 7.905138e-03 7.739137e-02
 2 -1 0 0 101   0  0.000000e+00  0.000000e+00  3.316812e+03  3.316812e+03 0.0 0.0 9.0
21 -1 0 0 103 101  0.000000e+00  0.000000e+00 -1.891775e+03  1.891775e+03 0.0 0.0 9.0
 2  1 1 2 103   0 -1.317182e+02 -2.168079e+03  2.009710e+03  2.959197e+03 0.0022 0.0 9.0
22  1 1 2   0   0  1.317182e+02  2.168079e+03 -5.846729e+02  2.249390e+03 0.0 0.0 9.0
#pdf 2 21 5.102788e-01 2.910424e-01 5000.0 6.490424e-02 2.602897e-01
</event>
<event>
4 7 1.0 5000.0 7.905138e-03 7.739137e-02
21 -1 0 0 103 101  0.000000e+00  0.000000e+00  2.448577e+03  2.448577e+03 0.0 0.0 9.0
 2 -1 0 0 101   0  0.000000e+00  0.000000e+00 -2.381032e+03  2.381032e+03 0.0 0.0 9.0
 2  1 1 2 103   0  2.225894e+03  8.519899e+02  4.206573e+02  2.420215e+03 0.0022 0.0 9.0
22  1 1 2   0   0 -2.225894e+03 -8.519899e+02 -3.531116e+02  2.409394e+03 0.0 0.0 9.0
#pdf 21 2 3.767042e-01 3.663125e-01 5000.0 1.403763e-02 1.595763e-02
</event>
<event>
4 7 1.0 5000.0 7.905138e-03 7.739137e-02
 2 -1 0 0 101   0  0.000000e+00  0.000000e+00  1.893381e+03  1.893381e+03 0.0 0.0 9.0
21 -1 0 0 103 101  0.000000e+00  0.000000e+00 -2.874536e+03  2.874536e+03 0.0 0.0 9.0
22  1 1 2   0   0  2.179495e+03 -4.442444e+02 -1.209558e+03  2.531913e+03 0.0 0.0 9.0
 2  1 1 2 103   0 -2.179495e+03  4.442444e+02  2.284033e+02  2.236005e+03 0.0022 0.0 9.0
#pdf 2 21 2.912895e-01 4.422364e-01 5000.0 2.599800e-01 1.079549e-01
</event>
<event>
4 7 1.0 5000.0 7.905138e-03 7.739137e-02
 2 -1 0 0 101   0  0.000000e+00  0.000000e+00  1.665622e+03  1.665622e+03 0.0 0.0 9.0
21 -1 0 0 103 101  0.000000e+00  0.000000e+00 -3.634449e+03  3.634449e+03 0.0 0.0 9.0
 2  1 1 2 103   0  1.658841e+03  1.631810e+03 -1.233879e+02  2.330189e+03 0.0022 0.0 9.0
22  1 1 2   0   0 -1.658841e+03 -1.631810e+03 -1.845438e+03  2.969882e+03 0.0 0.0 9.0
#pdf 2 21 2.562496e-01 5.591460e-01 5000.0 3.052604e-01 4.270573e-02
</event>
<event>
4 7 1.0 5000.0 7.905138e-03 7.739137e-02
21 -1 0 0 103 101  0.000000e+00  0.000000e+00  2.985665e+03  2.985665e+03 0.0 0.0 9.0
 2 -1 0 0 101   0  0.000000e+00  0.000000e+00 -2.107997e+03  2.107997e+03 0.0 0.0 9.0
 2  1 1 2 103   0 -9.087783e+02  9.917321e+02 -1.710950e+03  2.176410e+03 0.0022 0.0 9.0
22  1 1 2   0   0  9.087783e+02 -9.917321e+02  2.588619e+03  2.917252e+03 0.0 0.0 9.0
#pdf 21 2 4.593332e-01 3.243072e-01 5000.0 4.878675e-03 2.674528e-02
</event>
<event>
4 7 1.0 5000.0 7.905138e-03 7.739137e-02
21 -1 0 0 103 101  0.000000e+00  0.000000e+00  1.600642e+03  1.600642e+03 0.0 0.0 9.0
 2 -1 0 0 101   0  0.000000e+00  0.000000e+00 -3.216974e+03  3.216974e+03 0.0 0.0 9.0
 2  1 1 2 103   0  1.710792e+03 -7.246945e+02 -2.191100e+03  2.872788e+03 0.0022 0.0 9.0
22  1 1 2   0   0 -1.710792e+03  7.246945e+02  5.747684e+02  1.944827e+03 0.0 0.0 9.0
#pdf 21 2 2.462526e-01 4.949190e-01 5000.0 6.985172e-02 3.022738e-03
</event>
<event>
4 7 1.0 5000.0 7.905138e-03 7.739137e-02
21 -1 0 0 103 101  0.000000e+00  0.000000e+00  2.745790e+03  2.745790e+03 0.0 0.0 9.0
 2 -1 0 0 101   0  0.000000e+00  0.000000e+00 -2.301244e+03  2.301244e+03 0.0 0.0 9.0
 2  1 1 2 103   0  1.315775e+03  1.109521e+03 -1.616932e+03  2.361518e+03 0.0022 0.0 9.0
22  1 1 2   0   0 -1.315775e+03 -1.109521e+03  2.061478e+03  2.685515e+03 0.0 0.0 9.0
#pdf 21 2 4.224292e-01 3.540375e-01 5000.0 7.881871e-03 1.856622e-02
</event>
<event>
4 7 1.0 5000.0 7.905138e-03 7.739137e-02
21 -1 0 0 103 101  0.000000e+00  0.000000e+00  3.240722e+03  3.240722e+03 0.0 0.0 9.0
 2 -1 0 0 101   0  0.000000e+00  0.000000e+00 -1.929511e+03  1.929511e+03 0.0 0.0 9.0
22  1 1 2   0   0  1.209298e+03  1.433724e+03  2.365297e+03  3.018708e+03 0.0 0.0 9.0
 2  1 1 2 103   0 -1.209298e+03 -1.433724e+03 -1.054086e+03  2.151525e+03 0.0022 0.0 9.0
#pdf 21 2 4.985727e-01 2.968478e-01 5000.0 2.874617e-03 3.746758e-02
</event>
<event>
4 7 1.0 5000.0 7.905138e-03 7.739137e-02
 2 -1 0 0 101   0  0.000000e+00  0.000000e+00  1.771995e+03  1.771995e+03 0.0 0.0 9.0
21 -1 0 0 103 101  0.000000e+00  0.000000e+00 -3.503634e+03  3.503634e+03 0.0 0.0 9.0
 2  1 1 2 103   0 -5.161663e+02  3.813245e+02  1.683004e+03  1.801205e+03 0.0022 0.0 9.0
22  1 1 2   0   0  5.161663e+02 -3.813245e+02 -3.414643e+03  3.474424e+03 0.0 0.0 9.0
#pdf 2 21 2.726147e-01 5.390207e-01 5000.0 2.837871e-01 5.103357e-02
</event>
<event>
4 7 1.0 5000.0 7.905138e-03 7.739137e-02
 2 -1 0 0 101   0  0.000000e+00  0.000000e+00  3.026070e+03  3.026070e+03 0.0 0.0 9.0
21 -1 0 0 103 101  0.000000e+00  0.000000e+00 -2.084855e+03  2.084855e+03 0.0 0.0 9.0
22  1 1 2   0   0 -2.547452e+02 -1.171596e+03  2.716134e+03  2.968993e+03 0.0 0.0 9.0
 2  1 1 2 103   0  2.547452e+02  1.171596e+03 -1.774920e+03  2.141932e+03 0.0022 0.0 9.0
#pdf 2 21 4.655492e-01 3.207470e-01 5000.0 9.148812e-02 2.243772e-01
</event>
<event>
4 7 1.0 5000.0 7.905138e-03 7.739137e-02
21 -1 0 0 103 101  0.000000e+00  0.000000e+00  3.791704e+03  3.791704e+03 0.0 0.0 9.0
 2 -1 0 0 101   0  0.000000e+00  0.000000e+00 -1.603179e+03  1.603179e+03 0.0 0.0 9.0
 2  1 1 2 103   0  2.157316e+02 -1.907549e+03  2.786885e+03  3.384082e+03 0.0022 0.0 9.0
22  1 1 2   0   0 -2.157316e+02  1.907549e+03 -5.983602e+02  2.010801e+03 0.0 0.0 9.0
#pdf 21 2 5.833390e-01 2.466429e-01 5000.0 8.346095e-04 6.952398e-02
</event>
<event>
4 7 1.0 5000.0 7.905138e-03 7.739137e-02
 2 -1 0 0 101   0  0.000000e+00  0.000000e+00  2.681130e+03  2.681130e+03 0.0 0.0 9.0
21 -1 0 0 103 101  0.000000e+00  0.000000e+00 -2.365208e+03  2.365208e+03 0.0 0.0 9.0
22  1 1 2   0   0 -1.637006e+03 -5.016447e+02  2.008208e+03  2.639002e+03 0.0 0.0 9.0
 2  1 1 2 103   0  1.637006e+03  5.016447e+02 -1.692286e+03  2.407336e+03 0.0022 0.0 9.0
#pdf 2 21 4.124815e-01 3.638782e-01 5000.0 1.316857e-01 1.771606e-01
</event>
<event>
4 7 1.0 5000.0 7.905138e-03 7.739137e-02
 2 -1 0 0 101   0  0.000000e+00  0.000000e+00  1.917178e+03  1.917178e+03 0.0 0.0 9.0
21 -1 0 0 103 101  0.000000e+00  0.000000e+00 -3.305527e+03  3.305527e+03 0.0 0.0 9.0
 2  1 1 2 103   0 -8.295078e+02 -5.964628e+02  1.692442e+03  1.976920e+03 0.0022 0.0 9.0
22  1 1 2   0   0  8.295078e+02  5.964628e+02 -3.080791e+03  3.245786e+03 0.0 0.0 9.0
#pdf 2 21 2.949505e-01 5.085427e-01 5000.0 2.554155e-01 6.581926e-02
</event>
<event>
4 7 1.0 5000.0 7.905138e-03 7.739137e-02
 2 -1 0 0 101   0  0.000000e+00  0.000000e+00  1.524053e+03  1.524053e+03 0.0 0.0 9.0
21 -1 0 0 103 101  0.000000e+00  0.000000e+00 -3.923455e+03  3.923455e+03 0.0 0.0 9.0
22  1 1 2   0   0  7.552739e+02 -2.297553e+03 -1.601875e+03  2.900895e+03 0.0 0.0 9.0
 2  1 1 2 103   0 -7.552739e+02  2.297553e+03 -7.975271e+02  2.546613e+03 0.0022 0.0 9.0
#pdf 2 21 2.344696e-01 6.036084e-01 5000.0 3.346031e-01 2.782674e-02
</event>
<event>
4 7 1.0 5000.0 7.905138e-03 7.739137e-02
 2 -1 0 0 101   0  0.000000e+00  0.000000e+00  2.715268e+03  2.715268e+03 0.0 0.0 9.0
21 -1 0 0 103 101  0.000000e+00  0.000000e+00 -2.323196e+03  2.323196e+03 0.0 0.0 9.0
22  1 1 2   0   0  8.890189e+02 -2.332309e+03 -8.424052e+01  2.497422e+03 0.0 0.0 9.0
 2  1 1 2 103   0 -8.890189e+02  2.332309e+03  4.763128e+02  2.541042e+03 0.0022 0.0 9.0
#pdf 2 21 4.177336e-01 3.574148e-01 5000.0 1.272667e-01 1.838350e-01
</event>
<event>
4 7 1.0 5000.0 7.905138e-03 7.739137e-02
21 -1 0 0 103 101  0.000000e+00  0.000000e+00  2.034612e+03  2.034612e+03 0.0 0.0 9.0
 2 -1 0 0 101   0  0.000000e+00  0.000000e+00 -3.107806e+03  3.107806e+03 0.0 0.0 9.0
 2  1 1 2 103   0  2.396626e+03 -6.328667e+02 -9.690189e+02  2.661453e+03 0.0022 0.0 9.0
22  1 1 2   0   0 -2.396626e+03  6.328667e+02 -1.041748e+02  2.480965e+03 0.0 0.0 9.0
#pdf 21 2 3.130172e-01 4.781240e-01 5000.0 3.072661e-02 3.797522e-03
</event>
<event>
4 7 1.0 5000.0 7.905138e-03 7.739137e-02
21 -1 0 0 103 101  0.000000e+00  0.000000e+00  2.630434e+03  2.630434e+03 0.0 0.0 9.0
 2 -1 0 0 101   0  0.000000e+00  0.000000e+00 -2.430398e+03  2.430398e+03 0.0 0.0 9.0
 2  1 1 2 103   0 -9.789968e+02  2.787949e+01  2.432890e+03  2.622626e+03 0.0022 0.0 9.0
22  1 1 2   0   0  9.789968e+02 -2.787949e+01 -2.232854e+03  2.438206e+03 0.0 0.0 9.0
#pdf 21 2 4.046821e-01 3.739074e-01 5000.0 9.879101e-03 1.452641e-02
</event>
<event>
4 7 1.0 5000.0 7.905138e-03 7.739137e-02
 2 -1 0 0 101   0  0.000000e+00  0.000000e+00  2.398318e+03  2.398318e+03 0.0 0.0 9.0
21 -1 0 0 103 101  0.000000e+00  0.000000e+00 -2.628820e+03  2.628820e+03 0.0 0.0 9.0
 2  1 1 2 103   0  5.949865e+02  2.429844e+03 -3.313355e+02  2.523477e+03 0.0022 0.0 9.0
22  1 1 2   0   0 -5.949865e+02 -2.429844e+03  1.008333e+02  2.503661e+03 0.0 0.0 9.0
#pdf 2 21 3.689720e-01 4.044338e-01 5000.0 1.719977e-01 1.386420e-01
</event>
<event>
4 7 1.0 5000.0 7.905138e-03 7.739137e-02
 2 -1 0 0 101   0  0.000000e+00  0.000000e+00  1.841965e+03  1.841965e+03 0.0 0.0 9.0
21 -1 0 0 103 101  0.000000e+00  0.000000e+00 -3.440206e+03  3.440206e+03 0.0 0.0 9.0
22  1 1 2   0   0  1.569621e+03 -1.615144e+03 -1.978848e+03  2.998039e+03 0.0 0.0 9.0
 2  1 1 2 103   0 -1.569621e+03  1.615144e+03  3.806061e+02  2.284132e+03 0.0022 0.0 9.0
#pdf 2 21 2.833792e-01 5.292625e-01 5000.0 2.699691e-01 5.548737e-02
</event>
<event>
4 7 1.0 5000.0 7.905138e-03 7.739137e-02
 2 -1 0 0 101   0  0.000000e+00  0.000000e+00  3.135502e+03  3.135502e+03 0.0 0.0 9.0
21 -1 0 0 103 101  0.000000e+00  0.000000e+00 -1.993572e+03  1.993572e+03 0.0 0.0 9.0
 2  1 1 2 103   0 -1.456980e+03  1.583673e+03 -7.346106e+02  2.273865e+03 0.0022 0.0 9.0
22  1 1 2   0   0  1.456980e+03 -1.583673e+03  1.876541e+03  2.855209e+03 0.0 0.0 9.0
#pdf 2 21 4.823849e-01 3.067034e-01 5000.0 8.073042e-02 2.410288e-01
</event>
<event>
4 7 1.0 5000.0 7.905138e-03 7.739137e-02
21 -1 0 0 103 101  0.000000e+00  0.000000e+00  4.417784e+03  4.417784e+03 0.0 0.0 9.0
 2 -1 0 0 101   0  0.000000e+00  0.000000e+00 -1.461707e+03  1.461707e+03 0.0 0.0 9.0
22  1 1 2   0   0  9.130634e+02  1.725246e+03  3.360312e+03  3.886110e+03 0.0 0.0 9.0
 2  1 1 2 103   0 -9.130634e+02 -1.725246e+03 -4.042347e+02  1.993380e+03 0.0022 0.0 9.0
#pdf 21 2 6.796590e-01 2.248779e-01 5000.0 1.607537e-04 9.138859e-02
</event>
<event>
4 7 1.0 5000.0 7.905138e-03 7.739137e-02
21 -1 0 0 103 101  0.000000e+00  0.000000e+00  4.146585e+03  4.146585e+03 0.0 0.0 9.0
 2 -1 0 0 101   0  0.000000e+00  0.000000e+00 -1.522003e+03  1.522003e+03 0.0 0.0 9.0
22  1 1 2   0   0 -4.825831e+02 -7.251313e+02 -1.346185e+03  1.603408e+03 0.0 0.0 9.0
 2  1 1 2 103   0  4.825831e+02  7.251313e+02  3.970767e+03  4.065181e+03 0.0022 0.0 9.0
#pdf 21 2 6.379362e-01 2.341543e-01 5000.0 3.420049e-04 8.131969e-02
</event>
<event>
4 7 1.0 5000.0 7.905138e-03 7.739137e-02
21 -1 0 0 103 101  0.000000e+00  0.000000e+00  2.237409e+03  2.237409e+03 0.0 0.0 9.0
 2 -1 0 0 101   0  0.000000e+00  0.000000e+00 -2.787587e+03  2.787587e+03 0.0 0.0 9.0
22  1 1 2   0   0  9.369252e+02 -9.288336e+02 -2.408388e+03  2.746069e+03 0.0 0.0 9.0
 2  1 1 2 103   0 -9.369252e+02  9.288336e+02  1.858211e+03  2.278927e+03 0.0022 0.0 9.0
#pdf 21 2 3.442168e-01 4.288595e-01 5000.0 2.095401e-02 7.256343e-03
</event>
<event>
4 7 1.0 5000.0 7.905138e-03 7.739137e-02
21 -1 0 0 103 101  0.000000e+00  0.000000e+00  1.787419e+03  1.787419e+03 0.0 0.0 9.0
 2 -1 0 0 101   0  0.000000e+00  0.000000e+00 -3.446932e+03  3.446932e+03 0.0 0.0 9.0
22  1 1 2   0   0 -4.968175e+00 -2.382703e+03 -1.563157e+03  2.849694e+03 0.0 0.0 9.0
 2  1 1 2 103   0  4.968175e+00  2.382703e+03 -9.635601e+01  2.384656e+03 0.0022 0.0 9.0
#pdf 21 2 2.749875e-01 5.302972e-01 5000.0 4.895128e-02 1.842226e-03
</event>
<event>
4 7 1.0 5000.0 7.905138e-03 7.739137e-02
 2 -1 0 0 101   0  0.000000e+00  0.000000e+00  3.094968e+03  3.094968e+03 0.0 0.0 9.0
21 -1 0 0 103 101  0.000000e+00  0.000000e+00 -2.151809e+03  2.151809e+03 0.0 0.0 9.0
 2  1 1 2 103   0 -3.998965e+02 -1.036557e+03  2.839401e+03  3.049027e+03 0.0022 0.0 9.0
22  1 1 2   0   0  3.998965e+02  1.036557e+03 -1.896242e+03  2.197749e+03 0.0 0.0 9.0
#pdf 2 21 4.761489e-01 3.310475e-01 5000.0 8.460702e-02 2.125356e-01
</event>
<event>
4 7 1.0 5000.0 7.905138e-03 7.739137e-02
 2 -1 0 0 101   0  0.000000e+00  0.000000e+00  1.590607e+03  1.590607e+03 0.0 0.0 9.0
21 -1 0 0 103 101  0.000000e+00  0.000000e+00 -4.104968e+03  4.104968e+03 0.0 0.0 9.0
22  1 1 2   0   0 -1.879860e+02  8.101397e+02  1.435551e+03  1.659058e+03 0.0 0.0 9.0
 2  1 1 2 103   0  1.879860e+02 -8.101397e+02 -3.949912e+03  4.036517e+03 0.0022 0.0 9.0
#pdf 2 21 2.447087e-01 6.315335e-01 5000.0 3.207388e-01 2.069492e-02
</event>
<event>
4 7 1.0 5000.0 7.905138e-03 7.739137e-02
 2 -1 0 0 101   0  0.000000e+00  0.000000e+00  3.012826e+03  3.012826e+03 0.0 0.0 9.0
21 -1 0 0 103 101  0.000000e+00  0.000000e+00 -1.667558e+03  1.667558e+03 0.0 0.0 9.0
22  1 1 2   0   0 -1.391422e+03  3.648146e+02  2.467354e+03  2.856043e+03 0.0 0.0 9.0
 2  1 1 2 103   0  1.391422e+03 -3.648146e+02 -1.122086e+03  1.824341e+03 0.0022 0.0 9.0
#pdf 2 21 4.635117e-01 2.565474e-01 5000.0 9.285010e-02 3.048658e-01
</event>
<event>
4 7 1.0 5000.0 7.905138e-03 7.739137e-02
 2 -1 0 0 101   0  0.000000e+00  0.000000e+00  1.413894e+03  1.413894e+03 0.0 0.0 9.0
21 -1 0 0 103 101  0.000000e+00  0.000000e+00 -4.403416e+03  4.403416e+03 0.0 0.0 9.0
22  1 1 2   0   0 -9.269743e+02  4.258928e+02 -4.149218e+03  4.272784e+03 0.0 0.0 9.0
 2  1 1 2 103   0  9.269743e+02 -4.258928e+02  1.159697e+03  1.544527e+03 0.0022 0.0 9.0
#pdf 2 21 2.175222e-01 6.774486e-01 5000.0 3.578123e-01 1.203326e-02
</event>
<event>
4 7 1.0 5000.0 7.905138e-03 7.739137e-02
21 -1 0 0 103 101  0.000000e+00  0.000000e+00  1.314839e+03  1.314839e+03 0.0 0.0 9.0
 2 -1 0 0 101   0  0.000000e+00  0.000000e+00 -3.516157e+03  3.516157e+03 0.0 0.0 9.0
 2  1 1 2 103   0  1.187037e+03  1.471727e+03 -2.250788e+03  2.939572e+03 0.0022 0.0 9.0
22  1 1 2   0   0 -1.187037e+03 -1.471727e+03  4.947069e+01  1.891424e+03 0.0 0.0 9.0
#pdf 21 2 2.022830e-01 5.409472e-01 5000.0 1.221079e-01 1.578030e-03
</event>
<event>
4 7 1.0 5000.0 7.905138e-03 7.739137e-02
21 -1 0 0 103 101  0.000000e+00  0.000000e+00  3.377534e+03  3.377534e+03 0.0 0.0 9.0
 2 -1 0 0 101   0  0.000000e+00  0.000000e+00 -1.909341e+03  1.909341e+03 0.0 0.0 9.0
22  1 1 2   0   0  2.322751e+03  2.879810e+02  1.759709e+03  2.928256e+03 0.0 0.0 9.0
 2  1 1 2 103   0 -2.322751e+03 -2.879810e+02 -2.915157e+02  2.358620e+03 0.0022 0.0 9.0
#pdf 21 2 5.196207e-01 2.937448e-01 5000.0 2.143106e-03 3.892718e-02
</event>
<event>
4 7 1.0 5000.0 7.905138e-03 7.739137e-02
 2 -1 0 0 101   0  0.000000e+00  0.000000e+00  2.558006e+03  2.558006e+03 0.0 0.0 9.0
21 -1 0 0 103 101  0.000000e+00  0.000000e+00 -2.427870e+03  2.427870e+03 0.0 0.0 9.0
22  1 1 2   0   0  5.346051e+02  2.044185e+03  1.386886e+03  2.527438e+03 0.0 0.0 9.0
 2  1 1 2 103   0 -5.346051e+02 -2.044185e+03 -1.256750e+03  2.458437e+03 0.0022 0.0 9.0
#pdf 2 21 3.935393e-01 3.735184e-01 5000.0 1.484314e-01 1.674771e-01
</event>
<event>
4 7 1.0 5000.0 7.905138e-03 7.739137e-02
21 -1 0 0 103 101  0.000000e+00  0.000000e+00  1.854224e+03  1.854224e+03 0.0 0.0 9.0
 2 -1 0 0 101   0  0.000000e+00  0.000000e+00 -3.167732e+03  3.167732e+03 0.0 0.0 9.0
22  1 1 2   0   0 -1.527595e+03 -3.625000e+02  1.256110e+03  2.010662e+03 0.0 0.0 9.0
 2  1 1 2 103   0  1.527595e+03  3.625000e+02 -2.569618e+03  3.011293e+03 0.0022 0.0 9.0
#pdf 21 2 2.852652e-01 4.873433e-01 5000.0 4.314487e-02 3.351193e-03
</event>
<event>
4 7 1.0 5000.0 7.905138e-03 7.739137e-02
 2 -1 0 0 101   0  0.000000e+00  0.000000e+00  2.205287e+03  2.205287e+03 0.0 0.0 9.0
21 -1 0 0 103 101  0.000000e+00  0.000000e+00 -3.026604e+03  3.026604e+03 0.0 0.0 9.0
22  1 1 2   0   0 -2.158445e+03  6.031260e+01  1.025601e+03  2.390477e+03 0.0 0.0 9.0
 2  1 1 2 103   0  2.158445e+03 -6.031260e+01 -1.846918e+03  2.841413e+03 0.0022 0.0 9.0
#pdf 2 21 3.392749e-01 4.656313e-01 5000.0 2.033345e-01 9.143346e-02
</event>
<event>
4 7 1.0 5000.0 7.905138e-03 7.739137e-02
21 -1 0 0 103 101  0.000000e+00  0.000000e+00  1.902509e+03  1.902509e+03 0.0 0.0 9.0
 2 -1 0 0 101   0  0.000000e+00  0.000000e+00 -3.323073e+03  3.323073e+03 0.0 0.0 9.0
 2  1 1 2 103   0  1.723144e+03  1.771926e+03 -1.190115e+03  2.743232e+03 0.0022 0.0 9.0
22  1 1 2   0   0 -1.723144e+03 -1.771926e+03 -2.304489e+02  2.482349e+03 0.0 0.0 9.0
#pdf 21 2 2.926936e-01 5.112420e-01 5000.0 3.942939e-02 2.411364e-03
</event>
<event>
4 7 1.0 5000.0 7.905138e-03 7.739137e-02
21 -1 0 0 103 101  0.000000e+00  0.000000e+00  3.350031e+03  3.350031e+03 0.0 0.0 9.0
 2 -1 0 0 101   0  0.000000e+00  0.000000e+00 -1.911799e+03  1.911799e+03 0.0 0.0 9.0
22  1 1 2   0   0 -2.356349e+03  3.605660e+02  1.602583e+03  2.872396e+03 0.0 0.0 9.0
 2  1 1 2 103   0  2.356349e+03 -3.605660e+02 -1.643506e+02  2.389435e+03 0.0022 0.0 9.0
#pdf 21 2 5.153894e-01 2.941230e-01 5000.0 2.275294e-03 3.874759e-02
</event>
<event>
4 7 1.0 5000.0 7.905138e-03 7.739137e-02
 2 -1 0 0 101   0  0.000000e+00  0.000000e+00  3.457842e+03  3.457842e+03 0.0 0.0 9.0
21 -1 0 0 103 101  0.000000e+00  0.000000e+00 -1.651056e+03  1.651056e+03 0.0 0.0 9.0
22  1 1 2   0   0 -1.163115e+03  1.437551e+03  2.521113e+03  3.126564e+03 0.0 0.0 9.0
 2  1 1 2 103   0  1.163115e+03 -1.437551e+03 -7.143266e+02  1.982335e+03 0.0022 0.0 9.0
#pdf 2 21 5.319758e-01 2.540086e-01 5000.0 5.422440e-02 3.082374e-01
</event>
<event>
4 7 1.0 5000.0 7.905138e-03 7.739137e-02
 2 -1 0 0 101   0  0.000000e+00  0.000000e+00  2.949224e+03  2.949224e+03 0.0 0.0 9.0
21 -1 0 0 103 101  0.000000e+00  0.000000e+00 -2.122922e+03  2.122922e+03 0.0 0.0 9.0
 2  1 1 2 103   0 -3.577524e+02  1.641538e+03 -1.466232e+03  2.229903e+03 0.0022 0.0 9.0
22  1 1 2   0   0  3.577524e+02 -1.641538e+03  2.292533e+03  2.842243e+03 0.0 0.0 9.0
#pdf 2 21 4.537268e-01 3.266034e-01 5000.0 9.960830e-02 2.176036e-01
</event>
<event>
4 7 1.0 5000.0 7.905138e-03 7.739137e-02
 2 -1 0 0 101   0  0.000000e+00  0.000000e+00  2.893291e+03  2.893291e+03 0.0 0.0 9.0
21 -1 0 0 103 101  0.000000e+00  0.000000e+00 -2.170995e+03  2.170995e+03 0.0 0.0 9.0
 2  1 1 2 103   0  3.796998e+02 -9.761364e+02  2.661573e+03  2.860242e+03 0.0022 0.0 9.0
22  1 1 2   0   0 -3.796998e+02  9.761364e+02 -1.939277e+03  2.204044e+03 0.0 0.0 9.0
#pdf 2 21 4.451217e-01 3.339992e-01 5000.0 1.058045e-01 2.092072e-01
</event>
<event>
4 7 1.0 5000.0 7.905138e-03 7.739137e-02
 2 -1 0 0 101   0  0.000000e+00  0.000000e+00  4.285158e+03  4.285158e+03 0.0 0.0 9.0
21 -1 0 0 103 101  0.000000e+00  0.000000e+00 -1.379914e+03  1.379914e+03 0.0 0.0 9.0
 2  1 1 2 103   0  6.594503e+02 -2.173588e+03  4.412948e+02  2.313893e+03 0.0022 0.0 9.0
22  1 1 2   0   0 -6.594503e+02  2.173588e+03  2.463949e+03  3.351180e+03 0.0 0.0 9.0
#pdf 2 21 6.592551e-01 2.122945e-01 5000.0 1.506267e-02 3.650223e-01
</event>
<event>
4 7 1.0 5000.0 7.905138e-03 7.739137e-02
21 -1 0 0 103 101  0.000000e+00  0.000000e+00  1.889487e+03  1.889487e+03 0.0 0.0 9.0
 2 -1 0 0 101   0  0.000000e+00  0.000000e+00 -3.220697e+03  3.220697e+03 0.0 0.0 9.0
 2  1 1 2 103   0 -2.979594e+02 -2.168137e+03  5.134674e+02  2.247942e+03 0.0022 0.0 9.0
22  1 1 2   0   0  2.979594e+02  2.168137e+03 -1.844677e+03  2.862242e+03 0.0 0.0 9.0
#pdf 21 2 2.906904e-01 4.954919e-01 5000.0 4.040007e-02 2.999108e-03
</event>
<event>
4 7 1.0 5000.0 7.905138e-03 7.739137e-02
21 -1 0 0 103 101  0.000000e+00  0.000000e+00  1.341833e+03  1.341833e+03 0.0 0.0 9.0
 2 -1 0 0 101   0  0.000000e+00  0.000000e+00 -4.530239e+03  4.530239e+03 0.0 0.0 9.0
 2  1 1 2 103   0  1.301232e+03 -2.454379e+02  8.824411e+02  1.591272e+03 0.0022 0.0 9.0
22  1 1 2   0   0 -1.301232e+03  2.454379e+02 -4.070847e+03  4.280799e+03 0.0 0.0 9.0
#pdf 21 2 2.064358e-01 6.969598e-01 5000.0 1.156576e-01 1.150280e-04
</event>
<event>
4 7 1.0 5000.0 7.905138e-03 7.739137e-02
 2 -1 0 0 101   0  0.000000e+00  0.000000e+00  1.773808e+03  1.773808e+03 0.0 0.0 9.0
21 -1 0 0 103 101  0.000000e+00  0.000000e+00 -2.925857e+03  2.925857e+03 0.0 0.0 9.0
22  1 1 2   0   0 -9.312110e+02  1.946143e+03  1.786323e+02  2.164841e+03 0.0 0.0 9.0
 2  1 1 2 103   0  9.312110e+02 -1.946143e+03 -1.330681e+03  2.534825e+03 0.0022 0.0 9.0
#pdf 2 21 2.728936e-01 4.501319e-01 5000.0 2.834253e-01 1.021666e-01
</event>
<event>
4 7 1.0 5000.0 7.905138e-03 7.739137e-02
21 -1 0 0 103 101  0.000000e+00  0.000000e+00  1.986419e+03  1.986419e+03 0.0 0.0 9.0
 2 -1 0 0 101   0  0.000000e+00  0.000000e+00 -3.164034e+03  3.164034e+03 0.0 0.0 9.0
22  1 1 2   0   0 -3.576456e+02  2.475107e+03 -4.078506e+02  2.533852e+03 0.0 0.0 9.0
 2  1 1 2 103   0  3.576456e+02 -2.475107e+03 -7.697646e+02  2.616601e+03 0.0022 0.0 9.0
#pdf 21 2 3.056029e-01 4.867745e-01 5000.0 3.366450e-02 3.377160e-03
</event>
<event>
4 7 1.0 5000.0 7.905138e-03 7.739137e-02
 2 -1 0 0 101   0  0.000000e+00  0.000000e+00  3.103839e+03  3.103839e+03 0.0 0.0 9.0
21 -1 0 0 103 101  0.000000e+00  0.000000e+00 -2.146464e+03  2.146464e+03 0.0 0.0 9.0
22  1 1 2   0   0  4.419582e+02 -2.160621e+03  1.842700e+03  2.873875e+03 0.0 0.0 9.0
 2  1 1 2 103   0 -4.419582e+02  2.160621e+03 -8.853259e+02  2.376429e+03 0.0022 0.0 9.0
#pdf 2 21 4.775137e-01 3.302253e-01 5000.0 8.374730e-02 2.134682e-01
</event>
<event>
4 7 1.0 5000.0 7.905138e-03 7.739137e-02
21 -1 0 0 103 101  0.000000e+00  0.000000e+00  5.016844e+03  5.016844e+03 0.0 0.0 9.0
 2 -1 0 0 101   0  0.000000e+00  0.000000e+00 -1.232405e+03  1.232405e+03 0.0 0.0 9.0
 2  1 1 2 103   0 -1.137829e+03 -5.775829e+02 -7.895870e+02  1.500568e+03 0.0022 0.0 9.0
22  1 1 2   0   0  1.137829e+03  5.775829e+02  4.574026e+03  4.748681e+03 0.0 0.0 9.0
#pdf 21 2 7.718222e-01 1.896008e-01 5000.0 2.166443e-05 1.442604e-01
</event>
<event>
4 7 1.0 5000.0 7.905138e-03 7.739137e-02
 2 -1 0 0 101   0  0.000000e+00  0.000000e+00  4.085592e+03  4.085592e+03 0.0 0.0 9.0
21 -1 0 0 103 101  0.000000e+00  0.000000e+00 -1.476412e+03  1.476412e+03 0.0 0.0 9.0
22  1 1 2   0   0  7.664108e+01 -2.441881e+03  1.019572e+03  2.647298e+03 0.0 0.0 9.0
 2  1 1 2 103   0 -7.664108e+01  2.441881e+03  1.589608e+03  2.914706e+03 0.0022 0.0 9.0
#pdf 2 21 6.285526e-01 2.271402e-01 5000.0 2.138344e-02 3.446445e-01
</event>
<event>
4 7 1.0 5000.0 7.905138e-03 7.739137e-02
21 -1 0 0 103 101  0.000000e+00  0.000000e+00  2.105312e+03  2.105312e+03 0.0 0.0 9.0
 2 -1 0 0 101   0  0.000000e+00  0.000000e+00 -3.020068e+03  3.020068e+03 0.0 0.0 9.0
 2  1 1 2 103   0  2.168517e+03 -1.225763e+03 -8.552059e+02  2.633693e+03 0.0022 0.0 9.0
22  1 1 2   0   0 -2.168517e+03  1.225763e+03 -5.955077e+01  2.491687e+03 0.0 0.0 9.0
#pdf 21 2 3.238941e-01 4.646259e-01 5000.0 2.688073e-02 4.547934e-03
</event>
<event>
4 7 1.0 5000.0 7.905138e-03 7.739137e-02
21 -1 0 0 103 101  0.000000e+00  0.000000e+00  1.800483e+03  1.800483e+03 0.0 0.0 9.0
 2 -1 0 0 101   0  0.000000e+00  0.000000e+00 -3.518545e+03  3.518545e+03 0.0 0.0 9.0
 2  1 1 2 103   0  2.106430e+03 -1.123085e+03 -1.589555e+01  2.387178e+03 0.0022 0.0 9.0
22  1 1 2   0   0 -2.106430e+03  1.123085e+03 -1.702167e+03  2.931849e+03 0.0 0.0 9.0
#pdf 21 2 2.769973e-01 5.413146e-01 5000.0 4.775713e-02 1.569677e-03
</event>
<event>
4 7 1.0 5000.0 7.905138e-03 7.739137e-02
 2 -1 0 0 101   0  0.000000e+00  0.000000e+00  3.322775e+03  3.322775e+03 0.0 0.0 9.0
21 -1 0 0 103 101  0.000000e+00  0.000000e+00 -1.906710e+03  1.906710e+03 0.0 0.0 9.0
 2  1 1 2 103   0  1.625138e+03  1.006104e+02  2.702000e+03  3.154679e+03 0.0022 0.0 9.0
22  1 1 2   0   0 -1.625138e+03 -1.006104e+02 -1.285935e+03  2.074807e+03 0.0 0.0 9.0
#pdf 2 21 5.111962e-01 2.933400e-01 5000.0 6.442437e-02 2.574178e-01
</event>
<event>
4 7 1.0 5000.0 7.905138e-03 7.739137e-02
21 -1 0 0 103 101  0.000000e+00  0.000000e+00  2.797813e+03  2.797813e+03 0.0 0.0 9.0
 2 -1 0 0 101   0  0.000000e+00  0.000000e+00 -2.426180e+03  2.426180e+03 0.0 0.0 9.0
22  1 1 2   0   0  1.598079e+03  6.483902e+02  2.143654e+03  2.751276e+03 0.0 0.0 9.0
 2  1 1 2 103   0 -1.598079e+03 -6.483902e+02 -1.772021e+03  2.472716e+03 0.0022 0.0 9.0
#pdf 21 2 4.304328e-01 3.732584e-01 5000.0 7.111531e-03 1.464126e-02
</event>
<event>
4 7 1.0 5000.0 7.905138e-03 7.739137e-02
 2 -1 0 0 101   0  0.000000e+00  0.000000e+00  2.329156e+03  2.329156e+03 0.0 0.0 9.0
21 -1 0 0 103 101  0.000000e+00  0.000000e+00 -2.629762e+03  2.629762e+03 0.0 0.0 9.0
 2  1 1 2 103   0 -5.349317e+02  2.329127e+03 -7.950248e+02  2.518541e+03 0.0022 0.0 9.0
22  1 1 2   0   0  5.349317e+02 -2.329127e+03  4.944184e+02  2.440376e+03 0.0 0.0 9.0
#pdf 2 21 3.583316e-01 4.045788e-01 5000.0 1.828797e-01 1.385146e-01
</event>
<event>
4 7 1.0 5000.0 7.905138e-03 7.739137e-02
21 -1 0 0 103 101  0.000000e+00  0.000000e+00  2.436116e+03  2.436116e+03 0.0 0.0 9.0
 2 -1 0 0 101   0  0.000000e+00  0.000000e+00 -2.677436e+03  2.677436e+03 0.0 0.0 9.0
22  1 1 2   0   0  2.457289e+03 -4.068530e+02 -6.858662e+02  2.583449e+03 0.0 0.0 9.0
 2  1 1 2 103   0 -2.457289e+03  4.068530e+02  4.445470e+02  2.530103e+03 0.0022 0.0 9.0
#pdf 21 2 3.747872e-01 4.119132e-01 5000.0 1.437155e-02 9.011639e-03
</event>
<event>
4 7 1.0 5000.0 7.905138e-03 7.739137e-02
21 -1 0 0 103 101  0.000000e+00  0.000000e+00  1.065131e+03  1.065131e+03 0.0 0.0 9.0
 2 -1 0 0 101   0  0.000000e+00  0.000000e+00 -4.259843e+03  4.259843e+03 0.0 0.0 9.0
 2  1 1 2 103   0  6.059313e+01  1.674322e+03 -3.241522e+03  3.648902e+03 0.0022 0.0 9.0
22  1 1 2   0   0 -6.059313e+01 -1.674322e+03  4.680992e+01  1.676072e+03 0.0 0.0 9.0
#pdf 21 2 1.638663e-01 6.553605e-01 5000.0 2.043333e-01 2.520900e-04
</event>
<event>
4 7 1.0 5000.0 7.905138e-03 7.739137e-02
21 -1 0 0 103 101  0.000000e+00  0.000000e+00  4.503387e+03  4.503387e+03 0.0 0.0 9.0
 2 -1 0 0 101   0  0.000000e+00  0.000000e+00 -1.422624e+03  1.422624e+03 0.0 0.0 9.0
 2  1 1 2 103   0 -2.391866e+03 -6.759964e+02  2.100122e+03  3.253999e+03 0.0022 0.0 9.0
22  1 1 2   0   0  2.391866e+03  6.759964e+02  9.806402e+02  2.672012e+03 0.0 0.0 9.0
#pdf 21 2 6.928287e-01 2.188652e-01 5000.0 1.248736e-04 9.870116e-02
</event>
<event>
4 7 1.0 5000.0 7.905138e-03 7.739137e-02
21 -1 0 0 103 101  0.000000e+00  0.000000e+00  2.411846e+03  2.411846e+03 0.0 0.0 9.0
 2 -1 0 0 101   0  0.000000e+00  0.000000e+00 -2.577614e+03  2.577614e+03 0.0 0.0 9.0
 2  1 1 2 103   0 -2.352346e+03 -8.264928e+02 -9.650132e+01  2.495182e+03 0.0022 0.0 9.0
22  1 1 2   0   0  2.352346e+03  8.264928e+02 -6.926664e+01  2.494277e+03 0.0 0.0 9.0
#pdf 21 2 3.710532e-01 3.965560e-01 5000.0 1.503870e-02 1.094337e-02
</event>
<event>
4 7 1.0 5000.0 7.905138e-03 7.739137e-02
 2 -1 0 0 101   0  0.000000e+00  0.000000e+00  3.559151e+03  3.559151e+03 0.0 0.0 9.0
21 -1 0 0 103 101  0.000000e+00  0.000000e+00 -1.775415e+03  1.775415e+03 0.0 0.0 9.0
22  1 1 2   0   0 -1.166365e+03  1.917032e+03 -3.102662e+02  2.265322e+03 0.0 0.0 9.0
 2  1 1 2 103   0  1.166365e+03 -1.917032e+03  2.094002e+03  3.069245e+03 0.0022 0.0 9.0
#pdf 2 21 5.475617e-01 2.731408e-01 5000.0 4.736417e-02 2.831047e-01
</event>
<event>
4 7 1.0 5000.0 7.905138e-03 7.739137e-02
 2 -1 0 0 101   0  0.000000e+00  0.000000e+00  1.678569e+03  1.678569e+03 0.0 0.0 9.0
21 -1 0 0 103 101  0.000000e+00  0.000000e+00 -3.763556e+03  3.763556e+03 0.0 0.0 9.0
22  1 1 2   0   0 -1.754364e+03  1.462776e+03 -2.177878e+03  3.156051e+03 0.0 0.0 9.0
 2  1 1 2 103   0  1.754364e+03 -1.462776e+03  9.289110e+01  2.286074e+03 0.0022 0.0 9.0
#pdf 2 21 2.582414e-01 5.790087e-01 5000.0 3.026244e-01 3.547067e-02
</event>
<event>
4 7 1.0 5000.0 7.905138e-03 7.739137e-02
21 -1 0 0 103 101  0.000000e+00  0.000000e+00  4.268198e+03  4.268198e+03 0.0 0.0 9.0
 2 -1 0 0 101   0  0.000000e+00  0.000000e+00 -1.452319e+03  1.452319e+03 0.0 0.0 9.0
 2  1 1 2 103   0  5.787668e+02 -2.420947e+03  1.346829e+03  2.830177e+03 0.0022 0.0 9.0
22  1 1 2   0   0 -5.787668e+02  2.420947e+03  1.469049e+03  2.890339e+03 0.0 0.0 9.0
#pdf 21 2 6.566458e-01 2.234337e-01 5000.0 2.463904e-04 9.309164e-02
</event>
<event>
4 7 1.0 5000.0 7.905138e-03 7.739137e-02
21 -1 0 0 103 101  0.000000e+00  0.000000e+00  3.858466e+03  3.858466e+03 0.0 0.0 9.0
 2 -1 0 0 101   0  0.000000e+00  0.000000e+00 -1.877963e+03  1.877963e+03 0.0 0.0 9.0
22  1 1 2   0   0 -1.466909e+02 -6.484758e+02 -1.789100e+03  1.908643e+03 0.0 0.0 9.0
 2  1 1 2 103   0  1.466909e+02  6.484758e+02  3.769603e+03  3.827786e+03 0.0022 0.0 9.0
#pdf 21 2 5.936102e-01 2.889174e-01 5000.0 7.102941e-04 4.127651e-02
</event>
<event>
4 7 1.0 5000.0 7.905138e-03 7.739137e-02
 2 -1 0 0 101   0  0.000000e+00  0.000000e+00  3.081710e+03  3.081710e+03 0.0 0.0 9.0
21 -1 0 0 103 101  0.000000e+00  0.000000e+00 -2.086916e+03  2.086916e+03 0.0 0.0 9.0
 2  1 1 2 103   0  2.312015e+03 -6.172060e+02 -3.581912e+02  2.419640e+03 0.0022 0.0 9.0
22  1 1 2   0   0 -2.312015e+03  6.172060e+02  1.352985e+03  2.748986e+03 0.0 0.0 9.0
#pdf 2 21 4.741092e-01 3.210641e-01 5000.0 8.590334e-02 2.240079e-01
</event>
<event>
4 7 1.0 5000.0 7.905138e-03 7.739137e-02
 2 -1 0 0 101   0  0.000000e+00  0.000000e+00  1.688534e+03  1.688534e+03 0.0 0.0 9.0
21 -1 0 0 103 101  0.000000e+00  0.000000e+00 -3.653474e+03  3.653474e+03 0.0 0.0 9.0
22  1 1 2   0   0 -2.360939e+03  2.640702e+02 -2.030891e+02  2.384326e+03 0.0 0.0 9.0
 2  1 1 2 103   0  2.360939e+03 -2.640702e+02 -1.761850e+03  2.957682e+03 0.0022 0.0 9.0
#pdf 2 21 2.597745e-01 5.620729e-01 5000.0 3.006008e-01 4.157931e-02
</event>
<event>
4 7 1.0 5000.0 7.905138e-03 7.739137e-02
 2 -1 0 0 101   0  0.000000e+00  0.000000e+00  4.161507e+03  4.161507e+03 0.0 0.0 9.0
21 -1 0 0 103 101  0.000000e+00  0.000000e+00 -1.808707e+03  1.808707e+03 0.0 0.0 9.0
22  1 1 2   0   0  2.202003e+02 -2.025072e+03  3.176036e+03  3.773143e+03 0.0 0.0 9.0
 2  1 1 2 103   0 -2.202003e+02  2.025072e+03 -8.232354e+02  2.197071e+03 0.0022 0.0 9.0
#pdf 2 21 6.402319e-01 2.782626e-01 5000.0 1.878065e-02 2.764980e-01
</event>
<event>
4 7 1.0 5000.0 7.905138e-03 7.739137e-02
 2 -1 0 0 101   0  0.000000e+00  0.000000e+00  2.024475e+03  2.024475e+03 0.0 0.0 9.0
21 -1 0 0 103 101  0.000000e+00  0.000000e+00 -3.017549e+03  3.017549e+03 0.0 0.0 9.0
 2  1 1 2 103   0 -8.652999e+02 -2.571518e+02  1.850321e+03  2.058776e+03 0.0022 0.0 9.0
22  1 1 2   0   0  8.652999e+02  2.571518e+02 -2.843396e+03  2.983248e+03 0.0 0.0 9.0
#pdf 2 21 3.114577e-01 4.642384e-01 5000.0 2.353224e-01 9.236298e-02
</event>
<event>
4 7 1.0 5000.0 7.905138e-03 7.739137e-02
21 -1 0 0 103 101  0.000000e+00  0.000000e+00  3.467957e+03  3.467957e+03 0.0 0.0 9.0
 2 -1 0 0 101   0  0.000000e+00  0.000000e+00 -1.735370e+03  1.735370e+03 0.0 0.0 9.0
22  1 1 2   0   0  4.814273e+02  2.351708e+03  1.402760e+03  2.780294e+03 0.0 0.0 9.0
 2  1 1 2 103   0 -4.814273e+02 -2.351708e+03  3.298271e+02  2.423032e+03 0.0022 0.0 9.0
#pdf 21 2 5.335318e-01 2.669800e-01 5000.0 1.758291e-03 5.401803e-02
</event>
<event>
4 7 1.0 5000.0 7.905138e-03 7.739137e-02
 2 -1 0 0 101   0  0.000000e+00  0.000000e+00  1.546314e+03  1.546314e+03 0.0 0.0 9.0
21 -1 0 0 103 101  0.000000e+00  0.000000e+00 -4.099959e+03  4.099959e+03 0.0 0.0 9.0
22  1 1 2   0   0 -5.282426e+02 -8.459720e+02 -3.869042e+03  3.995522e+03 0.0 0.0 9.0
 2  1 1 2 103   0  5.282426e+02  8.459720e+02  1.315397e+03  1.650751e+03 0.0022 0.0 9.0
#pdf 2 21 2.378944e-01 6.307629e-01 5000.0 3.299265e-01 2.087127e-02
</event>
<event>
4 7 1.0 5000.0 7.905138e-03 7.739137e-02
 2 -1 0 0 101   0  0.000000e+00  0.000000e+00  2.326192e+03  2.326192e+03 0.0 0.0 9.0
21 -1 0 0 103 101  0.000000e+00  0.000000e+00 -2.803360e+03  2.803360e+03 0.0 0.0 9.0
22  1 1 2   0   0  5.937127e+02 -1.074324e+03 -2.487641e+03  2.773991e+03 0.0 0.0 9.0
 2  1 1 2 103   0 -5.937127e+02  1.074324e+03  2.010473e+03  2.355561e+03 0.0022 0.0 9.0
#pdf 2 21 3.578757e-01 4.312861e-01 5000.0 1.833544e-01 1.163240e-01
</event>
<event>
4 7 1.0 5000.0 7.905138e-03 7.739137e-02
 2 -1 0 0 101   0  0.000000e+00  0.000000e+00  2.744796e+03  2.744796e+03 0.0 0.0 9.0
21 -1 0 0 103 101  0.000000e+00  0.000000e+00 -2.055260e+03  2.055260e+03 0.0 0.0 9.0
22  1 1 2   0   0  1.529521e+03 -1.801316e+03  5.862207e+02  2.434713e+03 0.0 0.0 9.0
 2  1 1 2 103   0 -1.529521e+03  1.801316e+03  1.033148e+02  2.365343e+03 0.0022 0.0 9.0
#pdf 2 21 4.222763e-01 3.161939e-01 5000.0 1.235230e-01 2.297097e-01
</event>
<event>
4 7 1.0 5000.0 7.905138e-03 7.739137e-02
 2 -1 0 0 101   0  0.000000e+00  0.000000e+00  1.995142e+03  1.995142e+03 0.0 0.0 9.0
21 -1 0 0 103 101  0.000000e+00  0.000000e+00 -3.096133e+03  3.096133e+03 0.0 0.0 9.0
 2  1 1 2 103   0 -1.462994e+02  1.249292e+03 -2.746063e+03  3.020430e+03 0.0022 0.0 9.0
22  1 1 2   0   0  1.462994e+02 -1.249292e+03  1.645072e+03  2.070844e+03 0.0 0.0 9.0
#pdf 2 21 3.069449e-01 4.763281e-01 5000.0 2.407372e-01 8.449374e-02
</event>
<event>
4 7 1.0 5000.0 7.905138e-03 7.739137e-02
 2 -1 0 0 101   0  0.000000e+00  0.000000e+00  3.467593e+03  3.467593e+03 0.0 0.0 9.0
21 -1 0 0 103 101  0.000000e+00  0.000000e+00 -1.765441e+03  1.765441e+03 0.0 0.0 9.0
 2  1 1 2 103   0 -3.913289e+02 -5.382311e+02 -1.669030e+03  1.796801e+03 0.0022 0.0 9.0
22  1 1 2   0   0  3.913289e+02  5.382311e+02  3.371182e+03  3.436233e+03 0.0 0.0 9.0
#pdf 2 21 5.334758e-01 2.716063e-01 5000.0 5.353379e-02 2.850968e-01
</event>
<event>
4 7 1.0 5000.0 7.905138e-03 7.739137e-02
 2 -1 0 0 101   0  0.000000e+00  0.000000e+00  3.089666e+03  3.089666e+03 0.0 0.0 9.0
21 -1 0 0 103 101  0.000000e+00  0.000000e+00 -2.010346e+03  2.010346e+03 0.0 0.0 9.0
22  1 1 2   0   0  2.017331e+02  1.448994e+03  2.604097e+03  2.986905e+03 0.0 0.0 9.0
 2  1 1 2 103   0 -2.017331e+02 -1.448994e+03 -1.524777e+03  2.113107e+03 0.0022 0.0 9.0
#pdf 2 21 4.753333e-01 3.092840e-01 5000.0 8.512372e-02 2.379222e-01
</event>
<event>
4 7 1.0 5000.0 7.905138e-03 7.739137e-02
21 -1 0 0 103 101  0.000000e+00  0.000000e+00  2.090187e+03  2.090187e+03 0.0 0.0 9.0
 2 -1 0 0 101   0  0.000000e+00  0.000000e+00 -3.074297e+03  3.074297e+03 0.0 0.0 9.0
 2  1 1 2 103   0  3.409363e+02 -1.909472e+03 -2.154551e+03  2.899036e+03 0.0022 0.0 9.0
22  1 1 2   0   0 -3.409363e+02  1.909472e+03  1.170442e+03  2.265448e+03 0.0 0.0 9.0
#pdf 21 2 3.215673e-01 4.729687e-01 5000.0 2.765694e-02 4.070125e-03
</event>
<event>
4 7 1.0 5000.0 7.905138e-03 7.739137e-02
 2 -1 0 0 101   0  0.000000e+00  0.000000e+00  2.219553e+03  2.219553e+03 0.0 0.0 9.0
21 -1 0 0 103 101  0.000000e+00  0.000000e+00 -2.875620e+03  2.875620e+03 0.0 0.0 9.0
22  1 1 2   0   0 -1.814732e+02 -2.122067e+03  1.042230e+03  2.371148e+03 0.0 0.0 9.0
 2  1 1 2 103   0  1.814732e+02  2.122067e+03 -1.698297e+03  2.724025e+03 0.0022 0.0 9.0
#pdf 2 21 3.414697e-01 4.424031e-01 5000.0 2.009167e-01 1.078301e-01
</event>
<event>
4 7 1.0 5000.0 7.905138e-03 7.739137e-02
 2 -1 0 0 101   0  0.000000e+00  0.000000e+00  1.326916e+03  1.326916e+03 0.0 0.0 9.0
21 -1 0 0 103 101  0.000000e+00  0.000000e+00 -4.650704e+03  4.650704e+03 0.0 0.0 9.0
 2  1 1 2 103   0  1.500694e+03  1.569316e+03 -2.099943e+02  2.181498e+03 0.0022 0.0 9.0
22  1 1 2   0   0 -1.500694e+03 -1.569316e+03 -3.113794e+03  3.796122e+03 0.0 0.0 9.0
#pdf 2 21 2.041409e-01 7.154929e-01 5000.0 3.763290e-01 7.206621e-03
</event>
<event>
4 7 1.0 5000.0 7.905138e-03 7.739137e-02
 2 -1 0 0 101   0  0.000000e+00  0.000000e+00  2.864131e+03  2.864131e+03 0.0 0.0 9.0
21 -1 0 0 103 101  0.000000e+00  0.000000e+00 -2.160064e+03  2.160064e+03 0.0 0.0 9.0
 2  1 1 2 103   0 -9.289342e+02  6.404736e+02 -1.886718e+03  2.198370e+03 0.0022 0.0 9.0
22  1 1 2   0   0  9.289342e+02 -6.404736e+02  2.590784e+03  2.825825e+03 0.0 0.0 9.0
#pdf 2 21 4.406355e-01 3.323176e-01 5000.0 1.091567e-01 2.110995e-01
</event>
<event>
4 7 1.0 5000.0 7.905138e-03 7.739137e-02
 2 -1 0 0 101   0  0.000000e+00  0.000000e+00  2.650662e+03  2.650662e+03 0.0 0.0 9.0
21 -1 0 0 103 101  0.000000e+00  0.000000e+00 -2.351083e+03  2.351083e+03 0.0 0.0 9.0
 2  1 1 2 103   0 -1.203558e+03 -1.029198e+03 -1.783480e+03  2.385079e+03 0.0022 0.0 9.0
22  1 1 2   0   0  1.203558e+03  1.029198e+03  2.083060e+03  2.616665e+03 0.0 0.0 9.0
#pdf 2 21 4.077942e-01 3.617050e-01 5000.0 1.357087e-01 1.793891e-01
</event>
<event>
4 7 1.0 5000.0 7.905138e-03 7.739137e-02
21 -1 0 0 103 101  0.000000e+00  0.000000e+00  1.953002e+03  1.953002e+03 0.0 0.0 9.0
 2 -1 0 0 101   0  0.000000e+00  0.000000e+00 -3.131211e+03  3.131211e+03 0.0 0.0 9.0
 2  1 1 2 103   0  9.163225e+02 -8.030900e+02 -2.801220e+03  3.054739e+03 0.0022 0.0 9.0
22  1 1 2   0   0 -9.163225e+02  8.030900e+02  1.623010e+03  2.029473e+03 0.0 0.0 9.0
#pdf 21 2 3.004618e-01 4.817248e-01 5000.0 3.580726e-02 3.616705e-03
</event>
<event>
4 7 1.0 5000.0 7.905138e-03 7.739137e-02
21 -1 0 0 103 101  0.000000e+00  0.000000e+00  1.835207e+03  1.835207e+03 0.0 0.0 9.0
 2 -1 0 0 101   0  0.000000e+00  0.000000e+00 -3.571603e+03  3.571603e+03 0.0 0.0 9.0
 2  1 1 2 103   0 -2.268191e+03  6.312828e+02 -1.930145e+03  3.044449e+03 0.0022 0.0 9.0
22  1 1 2   0   0  2.268191e+03 -6.312828e+02  1.937499e+02  2.362361e+03 0.0 0.0 9.0
#pdf 21 2 2.823396e-01 5.494773e-01 5000.0 4.471611e-02 1.392483e-03
</event>
<event>
4 7 1.0 5000.0 7.905138e-03 7.739137e-02
21 -1 0 0 103 101  0.000000e+00  0.000000e+00  1.883812e+03  1.883812e+03 0.0 0.0 9.0
 2 -1 0 0 101   0  0.000000e+00  0.000000e+00 -3.340582e+03  3.340582e+03 0.0 0.0 9.0
 2  1 1 2 103   0  1.836494e+02 -1.381440e+03  1.443650e+03  2.006546e+03 0.0022 0.0 9.0
22  1 1 2   0   0 -1.836494e+02  1.381440e+03 -2.900421e+03  3.217848e+03 0.0 0.0 9.0
#pdf 21 2 2.898172e-01 5.139357e-01 5000.0 4.082951e-02 2.322241e-03
</event>
<event>
4 7 1.0 5000.0 7.905138e-03 7.739137e-02
21 -1 0 0 103 101  0.000000e+00  0.000000e+00  2.534603e+03  2.534603e+03 0.0 0.0 9.0
 2 -1 0 0 101   0  0.000000e+00  0.000000e+00 -2.272109e+03  2.272109e+03 0.0 0.0 9.0
 2  1 1 2 103   0  1.221635e+03 -1.104743e+03 -1.616653e+03  2.307904e+03 0.0022 0.0 9.0
22  1 1 2   0   0 -1.221635e+03  1.104743e+03  1.879147e+03  2.498809e+03 0.0 0.0 9.0
#pdf 21 2 3.899389e-01 3.495553e-01 5000.0 1.189265e-02 1.962697e-02
</event>
<event>
4 7 1.0 5000.0 7.905138e-03 7.739137e-02
21 -1 0 0 103 101  0.000000e+00  0.000000e+00  2.009248e+03  2.009248e+03 0.0 0.0 9.0
 2 -1 0 0 101   0  0.000000e+00  0.000000e+00 -3.022868e+03  3.022868e+03 0.0 0.0 9.0
22  1 1 2   0   0  7.328211e+02  1.761415e+03  1.085992e+03  2.195219e+03 0.0 0.0 9.0
 2  1 1 2 103   0 -7.328211e+02 -1.761415e+03 -2.099612e+03  2.836896e+03 0.0022 0.0 9.0
#pdf 21 2 3.091150e-01 4.650566e-01 5000.0 3.224605e-02 4.522101e-03
</event>
<event>
4 7 1.0 5000.0 7.905138e-03 7.739137e-02
21 -1 0 0 103 101  0.000000e+00  0.000000e+00  4.333698e+03  4.333698e+03 0.0 0.0 9.0
 2 -1 0 0 101   0  0.000000e+00  0.000000e+00 -1.468415e+03  1.468415e+03 0.0 0.0 9.0
22  1 1 2   0   0 -1.942696e+03  1.006926e+03 -1.093238e+01  2.188170e+03 0.0 0.0 9.0
 2  1 1 2 103   0  1.942696e+03 -1.006926e+03  2.876216e+03  3.613943e+03 0.0022 0.0 9.0
#pdf 21 2 6.667228e-01 2.259100e-01 5000.0 2.046320e-04 9.019255e-02
</event>
<event>
4 7 1.0 5000.0 7.905138e-03 7.739137e-02
21 -1 0 0 103 101  0.000000e+00  0.000000e+00  2.055352e+03  2.055352e+03 0.0 0.0 9.0
 2 -1 0 0 101   0  0.000000e+00  0.000000e+00 -2.895801e+03  2.895801e+03 0.0 0.0 9.0
 2  1 1 2 103   0 -2.012331e+03  6.772656e+02 -1.639471e+03  2.682542e+03 0.0022 0.0 9.0
22  1 1 2   0   0  2.012331e+03 -6.772656e+02  7.990219e+02  2.268612e+03 0.0 0.0 9.0
#pdf 21 2 3.162081e-01 4.455079e-01 5000.0 2.953718e-02 5.847640e-03
</event>
<event>
4 7 1.0 5000.0 7.905138e-03 7.739137e-02
21 -1 0 0 103 101  0.000000e+00  0.000000e+00  3.740356e+03  3.740356e+03 0.0 0.0 9.0
 2 -1 0 0 101   0  0.000000e+00  0.000000e+00 -1.506916e+03  1.506916e+03 0.0 0.0 9.0
 2  1 1 2 103   0 -8.246891e+01  5.996671e+02  3.653647e+03  3.703449e+03 0.0022 0.0 9.0
22  1 1 2   0   0  8.246891e+01 -5.996671e+02 -1.420207e+03  1.543823e+03 0.0 0.0 9.0
#pdf 21 2 5.754394e-01 2.318333e-01 5000.0 9.426438e-04 8.370022e-02
</event>
<event>
4 7 1.0 5000.0 7.905138e-03 7.739137e-02
 2 -1 0 0 101   0  0.000000e+00  0.000000e+00  2.290103e+03  2.290103e+03 0.0 0.0 9.0
21 -1 0 0 103 101  0.000000e+00  0.000000e+00 -2.758466e+03  2.758466e+03 0.0 0.0 9.0
22  1 1 2   0   0 -1.311307e+03  1.998249e+03 -1.015137e+03  2.596735e+03 0.0 0.0 9.0
 2  1 1 2 103   0  1.311307e+03 -1.998249e+03  5.467741e+02  2.451834e+03 0.0022 0.0 9.0
#pdf 2 21 3.523235e-01 4.243794e-01 5000.0 1.891926e-01 1.218151e-01
</event>
<event>
4 7 1.0 5000.0 7.905138e-03 7.739137e-02
 2 -1 0 0 101   0  0.000000e+00  0.000000e+00  1.682744e+03  1.682744e+03 0.0 0.0 9.0
21 -1 0 0 103 101  0.000000e+00  0.000000e+00 -3.622297e+03  3.622297e+03 0.0 0.0 9.0
22  1 1 2   0   0 -6.249139e+01  2.098115e+03  4.266707e+02  2.141971e+03 0.0 0.0 9.0
 2  1 1 2 103   0  6.249139e+01 -2.098115e+03 -2.366224e+03  3.163069e+03 0.0022 0.0 9.0
#pdf 2 21 2.588836e-01 5.572764e-01 5000.0 3.017762e-01 4.343350e-02
</event>
<event>
4 7 1.0 5000.0 7.905138e-03 7.739137e-02
 2 -1 0 0 101   0  0.000000e+00  0.000000e+00  3.573774e+03  3.573774e+03 0.0 0.0 9.0
21 -1 0 0 103 101  0.000000e+00  0.000000e+00 -1.738203e+03  1.738203e+03 0.0 0.0 9.0
 2  1 1 2 103   0  6.790485e+02  7.778583e+02  3.335126e+03  3.491308e+03 0.0022 0.0 9.0
22  1 1 2   0   0 -6.790485e+02 -7.778583e+02 -1.499555e+03  1.820669e+03 0.0 0.0 9.0
#pdf 2 21 5.498114e-01 2.674159e-01 5000.0 4.642293e-02 2.905620e-01
</event>
<event>
4 7 1.0 5000.0 7.905138e-03 7.739137e-02
21 -1 0 0 103 101  0.000000e+00  0.000000e+00  3.365235e+03  3.365235e+03 0.0 0.0 9.0
 2 -1 0 0 101   0  0.000000e+00  0.000000e+00 -1.782968e+03  1.782968e+03 0.0 0.0 9.0
 2  1 1 2 103   0  1.484651e+03  1.036427e+03  2.524814e+03  3.106937e+03 0.0022 0.0 9.0
22  1 1 2   0   0 -1.484651e+03 -1.036427e+03 -9.425475e+02  2.041266e+03 0.0 0.0 9.0
#pdf 21 2 5.177284e-01 2.743027e-01 5000.0 2.201330e-03 4.936476e-02
</event>
<event>
4 7 1.0 5000.0 7.905138e-03 7.739137e-02
21 -1 0 0 103 101  0.000000e+00  0.000000e+00  4.302160e+03  4.302160e+03 0.0 0.0 9.0
 2 -1 0 0 101   0  0.000000e+00  0.000000e+00 -1.459438e+03  1.459438e+03 0.0 0.0 9.0
22  1 1 2   0   0 -4.606381e+02  1.304345e+03  3.823402e+03  4.065945e+03 0.0 0.0 9.0
 2  1 1 2 103   0  4.606381e+02 -1.304345e+03 -9.806803e+02  1.695653e+03 0.0022 0.0 9.0
#pdf 21 2 6.618708e-01 2.245289e-01 5000.0 2.239758e-04 9.179704e-02
</event>
<event>
4 7 1.0 5000.0 7.905138e-03 7.739137e-02
 2 -1 0 0 101   0  0.000000e+00  0.000000e+00  2.269992e+03  2.269992e+03 0.0 0.0 9.0
21 -1 0 0 103 101  0.000000e+00  0.000000e+00 -2.541897e+03  2.541897e+03 0.0 0.0 9.0
22  1 1 2   0   0 -1.320001e+03 -2.810993e+02  1.854353e+03  2.293479e+03 0.0 0.0 9.0
 2  1 1 2 103   0  1.320001e+03  2.810993e+02 -2.126258e+03  2.518411e+03 0.0022 0.0 9.0
#pdf 2 21 3.492296e-01 3.910611e-01 5000.0 1.924935e-01 1.507134e-01
</event>
<event>
4 7 1.0 5000.0 7.905138e-03 7.739137e-02
21 -1 0 0 103 101  0.000000e+00  0.000000e+00  2.498052e+03  2.498052e+03 0.0 0.0 9.0
 2 -1 0 0 101   0  0.000000e+00  0.000000e+00 -2.531847e+03  2.531847e+03 0.0 0.0 9.0
 2  1 1 2 103   0 -1.531531e+03  1.553908e+03  1.233919e+03  2.506546e+03 0.0022 0.0 9.0
22  1 1 2   0   0  1.531531e+03 -1.553908e+03 -1.267714e+03  2.523354e+03 0.0 0.0 9.0
#pdf 21 2 3.843158e-01 3.895150e-01 5000.0 1.276631e-02 1.195636e-02
</event>
<event>
4 7 1.0 5000.0 7.905138e-03 7.739137e-02
 2 -1 0 0 101   0  0.000000e+00  0.000000e+00  2.055502e+03  2.055502e+03 0.0 0.0 9.0
21 -1 0 0 103 101  0.000000e+00  0.000000e+00 -3.063640e+03  3.063640e+03 0.0 0.0 9.0
22  1 1 2   0   0 -4.377495e+02  2.163957e+03  7.126471e+02  2.319957e+03 0.0 0.0 9.0
 2  1 1 2 103   0  4.377495e+02 -2.163957e+03 -1.720786e+03  2.799185e+03 0.0022 0.0 9.0
#pdf 2 21 3.162310e-01 4.713293e-01 5000.0 2.296660e-01 8.769196e-02
</event>
<event>
4 7 1.0 5000.0 7.905138e-03 7.739137e-02
 2 -1 0 0 101   0  0.000000e+00  0.000000e+00  1.306149e+03  1.306149e+03 0.0 0.0 9.0
21 -1 0 0 103 101  0.000000e+00  0.000000e+00 -4.775038e+03  4.775038e+03 0.0 0.0 9.0
 2  1 1 2 103   0 -2.411844e+03  1.619790e+02 -9.705312e+02  2.604834e+03 0.0022 0.0 9.0
22  1 1 2   0   0  2.411844e+03 -1.619790e+02 -2.498358e+03  3.476352e+03 0.0 0.0 9.0
#pdf 2 21 2.009459e-01 7.346212e-01 5000.0 3.807224e-01 5.419513e-03
</event>
<event>
4 7 1.0 5000.0 7.905138e-03 7.739137e-02
 2 -1 0 0 101   0  0.000000e+00  0.000000e+00  2.303900e+03  2.303900e+03 0.0 0.0 9.0
21 -1 0 0 103 101  0.000000e+00  0.000000e+00 -2.722894e+03  2.722894e+03 0.0 0.0 9.0
 2  1 1 2 103   0 -2.249948e+03  1.020692e+03  2.032762e+02  2.478992e+03 0.0022 0.0 9.0
22  1 1 2   0   0  2.249948e+03 -1.020692e+03 -6.222698e+02  2.547803e+03 0.0 0.0 9.0
#pdf 2 21 3.544462e-01 4.189067e-01 5000.0 1.869478e-01 1.262928e-01
</event>
<event>
4 7 1.0 5000.0 7.905138e-03 7.739137e-02
 2 -1 0 0 101   0  0.000000e+00  0.000000e+00  2.193350e+03  2.193350e+03 0.0 0.0 9.0
21 -1 0 0 103 101  0.000000e+00  0.000000e+00 -2.940242e+03  2.940242e+03 0.0 0.0 9.0
22  1 1 2   0   0 -9.498099e+02 -2.212554e+03  4.423568e+02  2.448104e+03 0.0 0.0 9.0
 2  1 1 2 103   0  9.498099e+02  2.212554e+03 -1.189249e+03  2.685488e+03 0.0022 0.0 9.0
#pdf 2 21 3.374385e-01 4.523450e-01 5000.0 2.053687e-01 1.005880e-01
</event>
<event>
4 7 1.0 5000.0 7.905138e-03 7.739137e-02
 2 -1 0 0 101   0  0.000000e+00  0.000000e+00  2.779448e+03  2.779448e+03 0.0 0.0 9.0
21 -1 0 0 103 101  0.000000e+00  0.000000e+00 -2.236291e+03  2.236291e+03 0.0 0.0 9.0
 2  1 1 2 103   0  1.972281e+03  1.210869e+03 -6.610302e+02  2.406877e+03 0.0022 0.0 9.0
22  1 1 2   0   0 -1.972281e+03 -1.210869e+03  1.204187e+03  2.608862e+03 0.0 0.0 9.0
#pdf 2 21 4.276073e-01 3.440448e-01 5000.0 1.192258e-01 1.980994e-01
</event>
<event>
4 7 1.0 5000.0 7.905138e-03 7.739137e-02
 2 -1 0 0 101   0  0.000000e+00  0.000000e+00  2.038877e+03  2.038877e+03 0.0 0.0 9.0
21 -1 0 0 103 101  0.000000e+00  0.000000e+00 -2.575364e+03  2.575364e+03 0.0 0.0 9.0
22  1 1 2   0   0 -2.063317e+03  9.698774e+02 -3.665425e+01  2.280194e+03 0.0 0.0 9.0
 2  1 1 2 103   0  2.063317e+03 -9.698774e+02 -4.998333e+02  2.334047e+03 0.0022 0.0 9.0
#pdf 2 21 3.136733e-01 3.962098e-01 5000.0 2.326880e-01 1.459943e-01
</event>
<event>
4 7 1.0 5000.0 7.905138e-03 7.739137e-02
21 -1 0 0 103 101  0.000000e+00  0.000000e+00  2.580803e+03  2.580803e+03 0.0 0.0 9.0
 2 -1 0 0 101   0  0.000000e+00  0.000000e+00 -2.435119e+03  2.435119e+03 0.0 0.0 9.0
 2  1 1 2 103   0  1.222608e+03  5.722443e+02 -2.040472e+03  2.446581e+03 0.0022 0.0 9.0
22  1 1 2   0   0 -1.222608e+03 -5.722443e+02  2.186156e+03  2.569341e+03 0.0 0.0 9.0
#pdf 21 2 3.970467e-01 3.746337e-01 5000.0 1.087612e-02 1.439849e-02
</event>
<event>
4 7 1.0 5000.0 7.905138e-03 7.739137e-02
 2 -1 0 0 101   0  0.000000e+00  0.000000e+00  2.104874e+03  2.104874e+03 0.0 0.0 9.0
21 -1 0 0 103 101  0.000000e+00  0.000000e+00 -3.111840e+03  3.111840e+03 0.0 0.0 9.0
 2  1 1 2 103   0  2.387000e+03  8.748671e+02 -2.031026e+02  2.550375e+03 0.0022 0.0 9.0
22  1 1 2   0   0 -2.387000e+03 -8.748671e+02 -8.038634e+02  2.666338e+03 0.0 0.0 9.0
#pdf 2 21 3.238267e-01 4.787446e-01 5000.0 2.208024e-01 8.297733e-02
</event>
<event>
4 7 1.0 5000.0 7.905138e-03 7.739137e-02
21 -1 0 0 103 101  0.000000e+00  0.000000e+00  2.348147e+03  2.348147e+03 0.0 0.0 9.0
 2 -1 0 0 101   0  0.000000e+00  0.000000e+00 -2.674477e+03  2.674477e+03 0.0 0.0 9.0
22  1 1 2   0   0 -1.357592e+03 -1.772679e+03  9.770570e+02  2.437230e+03 0.0 0.0 9.0
 2  1 1 2 103   0  1.357592e+03  1.772679e+03 -1.303387e+03  2.585394e+03 0.0022 0.0 9.0
#pdf 21 2 3.612534e-01 4.114580e-01 5000.0 1.698588e-02 9.063989e-03
</event>
<event>
4 7 1.0 5000.0 7.905138e-03 7.739137e-02
21 -1 0 0 103 101  0.000000e+00  0.000000e+00  2.281261e+03  2.281261e+03 0.0 0.0 9.0
 2 -1 0 0 101   0  0.000000e+00  0.000000e+00 -2.695708e+03  2.695708e+03 0.0 0.0 9.0
22  1 1 2   0   0 -1.080442e+03  2.065506e+03  6.418600e+02  2.417778e+03 0.0 0.0 9.0
 2  1 1 2 103   0  1.080442e+03 -2.065506e+03 -1.056307e+03  2.559190e+03 0.0022 0.0 9.0
#pdf 21 2 3.509632e-01 4.147243e-01 5000.0 1.928911e-02 8.695129e-03
</event>
<event>
4 7 1.0 5000.0 7.905138e-03 7.739137e-02
 2 -1 0 0 101   0  0.000000e+00  0.000000e+00  5.019815e+03  5.019815e+03 0.0 0.0 9.0
21 -1 0 0 103 101  0.000000e+00  0.000000e+00 -1.243208e+03  1.243208e+03 0.0 0.0 9.0
 2  1 1 2 103   0  1.426368e+03 -4.958458e+02 -6.063004e+02  1.627264e+03 0.0022 0.0 9.0
22  1 1 2   0   0 -1.426368e+03  4.958458e+02  4.382907e+03  4.635760e+03 0.0 0.0 9.0
#pdf 2 21 7.722793e-01 1.912628e-01 5000.0 2.893076e-03 3.940906e-01
</event>
<event>
4 7 1.0 5000.0 7.905138e-03 7.739137e-02
 2 -1 0 0 101   0  0.000000e+00  0.000000e+00  3.269272e+03  3.269272e+03 0.0 0.0 9.0
21 -1 0 0 103 101  0.000000e+00  0.000000e+00 -1.909675e+03  1.909675e+03 0.0 0.0 9.0
 2  1 1 2 103   0  2.843208e+02  2.456619e+03  1.049749e+03  2.686594e+03 0.0022 0.0 9.0
22  1 1 2   0   0 -2.843208e+02 -2.456619e+03  3.098486e+02  2.492353e+03 0.0 0.0 9.0
#pdf 2 21 5.029650e-01 2.937961e-01 5000.0 6.882054e-02 2.568498e-01
</event>
<event>
4 7 1.0 5000.0 7.905138e-03 7.739137e-02
 2 -1 0 0 101   0  0.000000e+00  0.000000e+00  3.431209e+03  3.431209e+03 0.0 0.0 9.0
21 -1 0 0 103 101  0.000000e+00  0.000000e+00 -1.737326e+03  1.737326e+03 0.0 0.0 9.0
22  1 1 2   0   0 -1.205899e+03  1.901426e+02 -1.391084e+03  1.850800e+03 0.0 0.0 9.0
 2  1 1 2 103   0  1.205899e+03 -1.901426e+02  3.084966e+03  3.317735e+03 0.0022 0.0 9.0
#pdf 2 21 5.278783e-01 2.672810e-01 5000.0 5.613887e-02 2.907386e-01
</event>
<event>
4 7 1.0 5000.0 7.905138e-03 7.739137e-02
21 -1 0 0 103 101  0.000000e+00  0.000000e+00  2.141584e+03  2.141584e+03 0.0 0.0 9.0
 2 -1 0 0 101   0  0.000000e+00  0.000000e+00 -2.938027e+03  2.938027e+03 0.0 0.0 9.0
22  1 1 2   0   0  1.090474e+03 -2.130301e+03  3.626646e+02  2.420504e+03 0.0 0.0 9.0
 2  1 1 2 103   0 -1.090474e+03  2.130301e+03 -1.159107e+03  2.659106e+03 0.0022 0.0 9.0
#pdf 21 2 3.294745e-01 4.520041e-01 5000.0 2.510728e-02 5.375819e-03
</event>
<event>
4 7 1.0 5000.0 7.905138e-03 7.739137e-02
21 -1 0 0 103 101  0.000000e+00  0.000000e+00  2.322500e+03  2.322500e+03 0.0 0.0 9.0
 2 -1 0 0 101   0  0.000000e+00  0.000000e+00 -4.962844e+03  4.962844e+03 0.0 0.0 9.0
22  1 1 2   0   0 -3.212179e+03  5.207245e+02 -2.358746e+03  4.019070e+03 0.0 0.0 9.0
 2  1 1 2 103   0  3.212179e+03 -5.207245e+02 -2.815988e+02  3.266274e+03 0.0022 0.0 9.0
#pdf 21 2 3.573077e-01 7.635145e-01 5000.0 1.782773e-02 2.662694e-05
</event>
<event>
4 7 1.0 5000.0 7.905138e-03 7.739137e-02
 2 -1 0 0 101   0  0.000000e+00  0.000000e+00  2.209796e+03  2.209796e+03 0.0 0.0 9.0
21 -1 0 0 103 101  0.000000e+00  0.000000e+00 -2.814679e+03  2.814679e+03 0.0 0.0 9.0
 2  1 1 2 103   0 -2.073355e+03  6.574007e+01  1.092166e+03  2.344344e+03 0.0022 0.0 9.0
22  1 1 2   0   0  2.073355e+03 -6.574007e+01 -1.697050e+03  2.680131e+03 0.0 0.0 9.0
#pdf 2 21 3.399685e-01 4.330276e-01 5000.0 2.025688e-01 1.149677e-01
</event>
<event>
4 7 1.0 5000.0 7.905138e-03 7.739137e-02
21 -1 0 0 103 101  0.000000e+00  0.000000e+00  1.829769e+03  1.829769e+03 0.0 0.0 9.0
 2 -1 0 0 101   0  0.000000e+00  0.000000e+00 -3.425651e+03  3.425651e+03 0.0 0.0 9.0
 2  1 1 2 103   0 -3.682610e+02 -2.302464e+03  1.589425e+02  2.337139e+03 0.0022 0.0 9.0
22  1 1 2   0   0  3.682610e+02  2.302464e+03 -1.754825e+03  2.918281e+03 0.0 0.0 9.0
#pdf 21 2 2.815029e-01 5.270233e-01 5000.0 4.517968e-02 1.930158e-03
</event>
<event>
4 7 1.0 5000.0 7.905138e-03 7.739137e-02
21 -1 0 0 103 101  0.000000e+00  0.000000e+00  2.560950e+03  2.560950e+03 0.0 0.0 9.0
 2 -1 0 0 101   0  0.000000e+00  0.000000e+00 -2.534722e+03  2.534722e+03 0.0 0.0 9.0
 2  1 1 2 103   0 -7.676713e+02 -9.292302e+02  2.257806e+03  2.559389e+03 0.0022 0.0 9.0
22  1 1 2   0   0  7.676713e+02  9.292302e+02 -2.231578e+03  2.536282e+03 0.0 0.0 9.0
#pdf 21 2 3.939923e-01 3.899572e-01 5000.0 1.130156e-02 1.188991e-02
</event>
<event>
4 7 1.0 5000.0 7.905138e-03 7.739137e-02
 2 -1 0 0 101   0  0.000000e+00  0.000000e+00  3.878551e+03  3.878551e+03 0.0 0.0 9.0
21 -1 0 0 103 101  0.000000e+00  0.000000e+00 -1.554818e+03  1.554818e+03 0.0 0.0 9.0
 2  1 1 2 103   0  2.157176e+03  5.042589e+02 -1.034759e+01  2.215354e+03 0.0022 0.0 9.0
22  1 1 2   0   0 -2.157176e+03 -5.042589e+02  2.334081e+03  3.218014e+03 0.0 0.0 9.0
#pdf 2 21 5.967001e-01 2.392027e-01 5000.0 2.983506e-02 3.281481e-01
</event>
<event>
4 7 1.0 5000.0 7.905138e-03 7.739137e-02
21 -1 0 0 103 101  0.000000e+00  0.000000e+00  3.665300e+03  3.665300e+03 0.0 0.0 9.0
 2 -1 0 0 101   0  0.000000e+00  0.000000e+00 -1.958373e+03  1.958373e+03 0.0 0.0 9.0
 2  1 1 2 103   0  4.417781e+00 -2.649069e+03  4.330818e+02  2.684240e+03 0.0022 0.0 9.0
22  1 1 2   0   0 -4.417781e+00  2.649069e+03  1.273845e+03  2.939433e+03 0.0 0.0 9.0
#pdf 21 2 5.638923e-01 3.012882e-01 5000.0 1.125360e-03 3.545755e-02
</event>
<event>
4 7 1.0 5000.0 7.905138e-03 7.739137e-02
21 -1 0 0 103 101  0.000000e+00  0.000000e+00  1.766906e+03  1.766906e+03 0.0 0.0 9.0
 2 -1 0 0 101   0  0.000000e+00  0.000000e+00 -3.297716e+03  3.297716e+03 0.0 0.0 9.0
 2  1 1 2 103   0  2.673325e+02 -1.712823e+03  9.967556e+02  1.999688e+03 0.0022 0.0 9.0
22  1 1 2   0   0 -2.673325e+02  1.712823e+03 -2.527566e+03  3.064934e+03 0.0 0.0 9.0
#pdf 21 2 2.718317e-01 5.073410e-01 5000.0 5.088646e-02 2.545767e-03
</event>
<event>
4 7 1.0 5000.0 7.905138e-03 7.739137e-02
21 -1 0 0 103 101  0.000000e+00  0.000000e+00  1.778471e+03  1.778471e+03 0.0 0.0 9.0
 2 -1 0 0 101   0  0.000000e+00  0.000000e+00 -3.615831e+03  3.615831e+03 0.0 0.0 9.0
 2  1 1 2 103   0 -6.269406e+02  1.764275e+03  9.003328e+02  2.077575e+03 0.0022 0.0 9.0
22  1 1 2   0   0  6.269406e+02 -1.764275e+03 -2.737692e+03  3.316727e+03 0.0 0.0 9.0
#pdf 21 2 2.736110e-01 5.562816e-01 5000.0 4.978603e-02 1.260602e-03
</event>
<event>
4 7 1.0 5000.0 7.905138e-03 7.739137e-02
21 -1 0 0 103 101  0.000000e+00  0.000000e+00  1.798434e+03  1.798434e+03 0.0 0.0 9.0
 2 -1 0 0 101   0  0.000000e+00  0.000000e+00 -3.455270e+03  3.455270e+03 0.0 0.0 9.0
22  1 1 2   0   0 -5.818036e+02 -3.304702e+02 -3.358873e+03  3.424870e+03 0.0 0.0 9.0
 2  1 1 2 103   0  5.818036e+02  3.304702e+02  1.702037e+03  1.828834e+03 0.0022 0.0 9.0
#pdf 21 2 2.766821e-01 5.315801e-01 5000.0 4.794252e-02 1.808617e-03
</event>
<event>
4 7 1.0 5000.0 7.905138e-03 7.739137e-02
 2 -1 0 0 101   0  0.000000e+00  0.000000e+00  1.798993e+03  1.798993e+03 0.0 0.0 9.0
21 -1 0 0 103 101  0.000000e+00  0.000000e+00 -3.090856e+03  3.090856e+03 0.0 0.0 9.0
22  1 1 2   0   0 -1.205237e+03  2.785179e+02  1.435576e+03  1.895006e+03 0.0 0.0 9.0
 2  1 1 2 103   0  1.205237e+03 -2.785179e+02 -2.727438e+03  2.994844e+03 0.0022 0.0 9.0
#pdf 2 21 2.767682e-01 4.755163e-01 5000.0 2.784184e-01 8.500760e-02
</event>
<event>
4 7 1.0 5000.0 7.905138e-03 7.739137e-02
 2 -1 0 0 101   0  0.000000e+00  0.000000e+00  5.199096e+03  5.199096e+03 0.0 0.0 9.0
21 -1 0 0 103 101  0.000000e+00  0.000000e+00 -1.213274e+03  1.213274e+03 0.0 0.0 9.0
22  1 1 2   0   0  7.628676e+02 -1.906041e+03  1.460826e+02  2.058227e+03 0.0 0.0 9.0
 2  1 1 2 103   0 -7.628676e+02  1.906041e+03  3.839740e+03  4.354143e+03 0.0022 0.0 9.0
#pdf 2 21 7.998609e-01 1.866575e-01 5000.0 1.707216e-03 4.003578e-01
</event>
<event>
4 7 1.0 5000.0 7.905138e-03 7.739137e-02
21 -1 0 0 103 101  0.000000e+00  0.000000e+00  2.863936e+03  2.863936e+03 0.0 0.0 9.0
 2 -1 0 0 101   0  0.000000e+00  0.000000e+00 -2.332368e+03  2.332368e+03 0.0 0.0 9.0
 2  1 1 2 103   0  1.180679e+03  2.181944e+03 -4.625172e+02  2.523649e+03 0.0022 0.0 9.0
22  1 1 2   0   0 -1.180679e+03 -2.181944e+03  9.940848e+02  2.672655e+03 0.0 0.0 9.0
#pdf 21 2 4.406055e-01 3.588259e-01 5000.0 6.241140e-03 1.749833e-02
</event>
<event>
4 7 1.0 5000.0 7.905138e-03 7.739137e-02
21 -1 0 0 103 101  0.000000e+00  0.000000e+00  2.349482e+03  2.349482e+03 0.0 0.0 9.0
 2 -1 0 0 101   0  0.000000e+00  0.000000e+00 -2.801171e+03  2.801171e+03 0.0 0.0 9.0
22  1 1 2   0   0  5.505409e+02  6.556551e+02  2.201839e+03  2.362430e+03 0.0 0.0 9.0
 2  1 1 2 103   0 -5.505409e+02 -6.556551e+02 -2.653528e+03  2.788223e+03 0.0022 0.0 9.0
#pdf 21 2 3.614588e-01 4.309494e-01 5000.0 1.694322e-02 7.064709e-03
</event>
<event>
4 7 1.0 5000.0 7.905138e-03 7.739137e-02
 2 -1 0 0 101   0  0.000000e+00  0.000000e+00  1.393985e+03  1.393985e+03 0.0 0.0 9.0
21 -1 0 0 103 101  0.000000e+00  0.000000e+00 -4.407795e+03  4.407795e+03 0.0 0.0 9.0
 2  1 1 2 103   0 -1.754996e+01  2.375188e+03 -6.772622e+02  2.469921e+03 0.0022 0.0 9.0
22  1 1 2   0   0  1.754996e+01 -2.375188e+03 -2.336548e+03  3.331859e+03 0.0 0.0 9.0
#pdf 2 21 2.144592e-01 6.781223e-01 5000.0 3.620295e-01 1.193070e-02
</event>
<event>
4 7 1.0 5000.0 7.905138e-03 7.739137e-02
 2 -1 0 0 101   0  0.000000e+00  0.000000e+00  1.219625e+03  1.219625e+03 0.0 0.0 9.0
21 -1 0 0 103 101  0.000000e+00  0.000000e+00 -5.004241e+03  5.004241e+03 0.0 0.0 9.0
22  1 1 2   0   0  2.321719e+03  3.176764e+02 -9.068832e+02  2.512715e+03 0.0 0.0 9.0
 2  1 1 2 103   0 -2.321719e+03 -3.176764e+02 -2.877732e+03  3.711151e+03 0.0022 0.0 9.0
#pdf 2 21 1.876346e-01 7.698832e-01 5000.0 3.990273e-01 3.020414e-03
</event>
<event>
4 7 1.0 5000.0 7.905138e-03 7.739137e-02
21 -1 0 0 103 101  0.000000e+00  0.000000e+00  1.764780e+03  1.764780e+03 0.0 0.0 9.0
 2 -1 0 0 101   0  0.000000e+00  0.000000e+00 -3.503262e+03  3.503262e+03 0.0 0.0 9.0
22  1 1 2   0   0  1.956749e+03 -4.758200e+01 -2.493656e+03  3.170086e+03 0.0 0.0 9.0
 2  1 1 2 103   0 -1.956749e+03  4.758200e+01  7.551738e+02  2.097955e+03 0.0022 0.0 9.0
#pdf 21 2 2.715046e-01 5.389634e-01 5000.0 5.109142e-02 1.623990e-03
</event>
<event>
4 7 1.0 5000.0 7.905138e-03 7.739137e-02
21 -1 0 0 103 101  0.000000e+00  0.000000e+00  2.934445e+03  2.934445e+03 0.0 0.0 9.0
 2 -1 0 0 101   0  0.000000e+00  0.000000e+00 -2.106931e+03  2.106931e+03 0.0 0.0 9.0
 2  1 1 2 103   0 -9.371130e+02  6.917600e+02  2.640770e+03  2.886240e+03 0.0022 0.0 9.0
22  1 1 2   0   0  9.371130e+02 -6.917600e+02 -1.813256e+03  2.155136e+03 0.0 0.0 9.0
#pdf 21 2 4.514531e-01 3.241432e-01 5000.0 5.414537e-03 2.679897e-02
</event>
<event>
4 7 1.0 5000.0 7.905138e-03 7.739137e-02
21 -1 0 0 103 101  0.000000e+00  0.000000e+00  1.640629e+03  1.640629e+03 0.0 0.0 9.0
 2 -1 0 0 101   0  0.000000e+00  0.000000e+00 -2.856410e+03  2.856410e+03 0.0 0.0 9.0
 2  1 1 2 103   0  1.652108e+03 -1.398635e+03 -6.347275e+02  2.255775e+03 0.0022 0.0 9.0
22  1 1 2   0   0 -1.652108e+03  1.398635e+03 -5.810537e+02  2.241264e+03 0.0 0.0 9.0
#pdf 21 2 2.524044e-01 4.394477e-01 5000.0 6.478127e-02 6.335821e-03
</event>
<event>
4 7 1.0 5000.0 7.905138e-03 7.739137e-02
 2 -1 0 0 101   0  0.000000e+00  0.000000e+00  1.785713e+03  1.785713e+03 0.0 0.0 9.0
21 -1 0 0 103 101  0.000000e+00  0.000000e+00 -3.416205e+03  3.416205e+03 0.0 0.0 9.0
22  1 1 2   0   0  2.405275e+03 -3.584799e+02 -3.604660e+02  2.458412e+03 0.0 0.0 9.0
 2  1 1 2 103   0 -2.405275e+03  3.584799e+02 -1.270026e+03  2.743505e+03 0.0022 0.0 9.0
#pdf 2 21 2.747250e-01 5.255699e-01 5000.0 2.810539e-01 5.723661e-02
</event>
<event>
4 7 1.0 5000.0 7.905138e-03 7.739137e-02
 2 -1 0 0 101   0  0.000000e+00  0.000000e+00  2.909011e+03  2.909011e+03 0.0 0.0 9.0
21 -1 0 0 103 101  0.000000e+00  0.000000e+00 -1.592005e+03  1.592005e+03 0.0 0.0 9.0
22  1 1 2   0   0  8.855017e+02 -1.874522e+03  5.483635e+01  2.073874e+03 0.0 0.0 9.0
 2  1 1 2 103   0 -8.855017e+02  1.874522e+03  1.262169e+03  2.427142e+03 0.0022 0.0 9.0
#pdf 2 21 4.475401e-01 2.449239e-01 5000.0 1.040309e-01 3.204523e-01
</event>
<event>
4 7 1.0 5000.0 7.905138e-03 7.739137e-02
21 -1 0 0 103 101  0.000000e+00  0.000000e+00  1.815957e+03  1.815957e+03 0.0 0.0 9.0
 2 -1 0 0 101   0  0.000000e+00  0.000000e+00 -3.337284e+03  3.337284e+03 0.0 0.0 9.0
 2  1 1 2 103   0  5.962204e+02 -3.735523e+02  1.708484e+03  1.847684e+03 0.0022 0.0 9.0
22  1 1 2   0   0 -5.962204e+02  3.735523e+02 -3.229812e+03  3.305557e+03 0.0 0.0 9.0
#pdf 21 2 2.793779e-01 5.134284e-01 5000.0 4.637881e-02 2.338811e-03
</event>
<event>
4 7 1.0 5000.0 7.905138e-03 7.739137e-02
 2 -1 0 0 101   0  0.000000e+00  0.000000e+00  4.474226e+03  4.474226e+03 0.0 0.0 9.0
21 -1 0 0 103 101  0.000000e+00  0.000000e+00 -1.370415e+03  1.370415e+03 0.0 0.0 9.0
 2  1 1 2 103   0  1.820451e+02  2.194667e+03  2.157409e+02  2.212747e+03 0.0022 0.0 9.0
22  1 1 2   0   0 -1.820451e+02 -2.194667e+03  2.888070e+03  3.631894e+03 0.0 0.0 9.0
#pdf 2 21 6.883425e-01 2.108331e-01 5000.0 1.046497e-02 3.670499e-01
</event>
<event>
4 7 1.0 5000.0 7.905138e-03 7.739137e-02
21 -1 0 0 103 101  0.000000e+00  0.000000e+00  3.340720e+03  3.340720e+03 0.0 0.0 9.0
 2 -1 0 0 101   0  0.000000e+00  0.000000e+00 -1.892977e+03  1.892977e+03 0.0 0.0 9.0
 2  1 1 2 103   0 -6.723933e+02 -4.928052e+02 -1.745003e+03  1.933909e+03 0.0022 0.0 9.0
22  1 1 2   0   0  6.723933e+02  4.928052e+02  3.192746e+03  3.299787e+03 0.0 0.0 9.0
#pdf 21 2 5.139569e-01 2.912272e-01 5000.0 2.321553e-03 4.013807e-02
</event>
<event>
4 7 1.0 5000.0 7.905138e-03 7.739137e-02
21 -1 0 0 103 101  0.000000e+00  0.000000e+00  5.344179e+03  5.344179e+03 0.0 0.0 9.0
 2 -1 0 0 101   0  0.000000e+00  0.000000e+00 -1.151324e+03  1.151324e+03 0.0 0.0 9.0
 2  1 1 2 103   0 -1.081617e+03 -6.122523e+01 -8.252009e+02  1.361837e+03 0.0022 0.0 9.0
22  1 1 2   0   0  1.081617e+03  6.122523e+01  5.018056e+03  5.133666e+03 0.0 0.0 9.0
#pdf 21 2 8.221814e-01 1.771268e-01 5000.0 5.254183e-06 1.705323e-01
</event>
<event>
4 7 1.0 5000.0 7.905138e-03 7.739137e-02
 2 -1 0 0 101   0  0.000000e+00  0.000000e+00  1.792290e+03  1.792290e+03 0.0 0.0 9.0
21 -1 0 0 103 101  0.000000e+00  0.000000e+00 -3.462052e+03  3.462052e+03 0.0 0.0 9.0
22  1 1 2   0   0 -2.474673e+03  2.417227e+02 -9.933132e+02  2.677519e+03 0.0 0.0 9.0
 2  1 1 2 103   0  2.474673e+03 -2.417227e+02 -6.764492e+02  2.576823e+03 0.0022 0.0 9.0
#pdf 2 21 2.757369e-01 5.326234e-01 5000.0 2.797474e-01 5.392558e-02
</event>
<event>
4 7 1.0 5000.0 7.905138e-03 7.739137e-02
 2 -1 0 0 101   0  0.000000e+00  0.000000e+00  1.850320e+03  1.850320e+03 0.0 0.0 9.0
21 -1 0 0 103 101  0.000000e+00  0.000000e+00 -3.398956e+03  3.398956e+03 0.0 0.0 9.0
22  1 1 2   0   0  1.730876e+03 -5.881992e+02 -2.571043e+03  3.154706e+03 0.0 0.0 9.0
 2  1 1 2 103   0 -1.730876e+03  5.881992e+02  1.022407e+03  2.094570e+03 0.0022 0.0 9.0
#pdf 2 21 2.846646e-01 5.229163e-01 5000.0 2.683369e-01 5.851680e-02
</event>
<event>
4 7 1.0 5000.0 7.905138e-03 7.739137e-02
 2 -1 0 0 101   0  0.000000e+00  0.000000e+00  3.203589e+03  3.203589e+03 0.0 0.0 9.0
21 -1 0 0 103 101  0.000000e+00  0.000000e+00 -1.403064e+03  1.403064e+03 0.0 0.0 9.0
 2  1 1 2 103   0 -8.715859e+02  1.418146e+03 -5.262375e+02  1.745774e+03 0.0022 0.0 9.0
22  1 1 2   0   0  8.715859e+02 -1.418146e+03  2.326763e+03  2.860878e+03 0.0 0.0 9.0
#pdf 2 21 4.928598e-01 2.158559e-01 5000.0 7.450173e-02 3.601042e-01
</event>
<event>
4 7 1.0 5000.0 7.905138e-03 7.739137e-02
21 -1 0 0 103 101  0.000000e+00  0.000000e+00  2.488255e+03  2.488255e+03 0.0 0.0 9.0
 2 -1 0 0 101   0  0.000000e+00  0.000000e+00 -2.500566e+03  2.500566e+03 0.0 0.0 9.0
 2  1 1 2 103   0  1.042553e+03  2.161241e+03  6.751448e+02  2.492729e+03 0.0022 0.0 9.0
22  1 1 2   0   0 -1.042553e+03 -2.161241e+03 -6.874554e+02  2.496092e+03 0.0 0.0 9.0
#pdf 21 2 3.828085e-01 3.847024e-01 5000.0 1.301049e-02 1.270432e-02
</event>
<event>
4 7 1.0 5000.0 7.905138e-03 7.739137e-02
21 -1 0 0 103 101  0.000000e+00  0.000000e+00  2.135437e+03  2.135437e+03 0.0 0.0 9.0
 2 -1 0 0 101   0  0.000000e+00  0.000000e+00 -2.908392e+03  2.908392e+03 0.0 0.0 9.0
 2  1 1 2 103   0 -1.026488e+03  7.703026e+02  1.775326e+03  2.190623e+03 0.0022 0.0 9.0
22  1 1 2   0   0  1.026488e+03 -7.703026e+02 -2.548282e+03  2.853206e+03 0.0 0.0 9.0
#pdf 21 2 3.285287e-01 4.474450e-01 5000.0 2.539956e-02 5.700886e-03
</event>
<event>
4 7 1.0 5000.0 7.905138e-03 7.739137e-02
 2 -1 0 0 101   0  0.000000e+00  0.000000e+00  4.535019e+03  4.535019e+03 0.0 0.0 9.0
21 -1 0 0 103 101  0.000000e+00  0.000000e+00 -1.413030e+03  1.413030e+03 0.0 0.0 9.0
22  1 1 2   0   0  1.157923e+03 -1.240848e+03 -6.455902e+02  1.815840e+03 0.0 0.0 9.0
 2  1 1 2 103   0 -1.157923e+03  1.240848e+03  3.767580e+03  4.132208e+03 0.0022 0.0 9.0
#pdf 2 21 6.976953e-01 2.173892e-01 5000.0 9.236071e-03 3.579951e-01
</event>
<event>
4 7 1.0 5000.0 7.905138e-03 7.739137e-02
21 -1 0 0 103 101  0.000000e+00  0.000000e+00  2.245874e+03  2.245874e+03 0.0 0.0 9.0
 2 -1 0 0 101   0  0.000000e+00  0.000000e+00 -2.785313e+03  2.785313e+03 0.0 0.0 9.0
22  1 1 2   0   0 -2.044898e+03 -6.272708e+02  1.034093e+03  2.375800e+03 0.0 0.0 9.0
 2  1 1 2 103   0  2.044898e+03  6.272708e+02 -1.573532e+03  2.655387e+03 0.0022 0.0 9.0
#pdf 21 2 3.455190e-01 4.285097e-01 5000.0 2.062300e-02 7.289015e-03
</event>
<event>
4 7 1.0 5000.0 7.905138e-03 7.739137e-02
 2 -1 0 0 101   0  0.000000e+00  0.000000e+00  2.683989e+03  2.683989e+03 0.0 0.0 9.0
21 -1 0 0 103 101  0.000000e+00  0.000000e+00 -1.822227e+03  1.822227e+03 0.0 0.0 9.0
22  1 1 2   0   0 -1.625372e+02  2.205329e+03  4.621770e+02  2.259093e+03 0.0 0.0 9.0
 2  1 1 2 103   0  1.625372e+02 -2.205329e+03  3.995854e+02  2.247123e+03 0.0022 0.0 9.0
#pdf 2 21 4.129214e-01 2.803425e-01 5000.0 1.313120e-01 2.738355e-01
</event>
<event>
4 7 1.0 5000.0 7.905138e-03 7.739137e-02
21 -1 0 0 103 101  0.000000e+00  0.000000e+00  3.478194e+03  3.478194e+03 0.0 0.0 9.0
 2 -1 0 0 101   0  0.000000e+00  0.000000e+00 -1.838790e+03  1.838790e+03 0.0 0.0 9.0
 2  1 1 2 103   0 -1.911972e+03  1.648385e+03  6.607616e+02  2.609485e+03 0.0022 0.0 9.0
22  1 1 2   0   0  1.911972e+03 -1.648385e+03  9.786420e+02  2.707498e+03 0.0 0.0 9.0
#pdf 21 2 5.351067e-01 2.828908e-01 5000.0 1.718318e-03 4.441434e-02
</event>
<event>
4 7 1.0 5000.0 7.905138e-03 7.739137e-02
21 -1 0 0 103 101  0.000000e+00  0.000000e+00  3.909482e+03  3.909482e+03 0.0 0.0 9.0
 2 -1 0 0 101   0  0.000000e+00  0.000000e+00 -1.533674e+03  1.533674e+03 0.0 0.0 9.0
 2  1 1 2 103   0  1.951272e+03  1.605632e+02 -4.465986e+02  2.008157e+03 0.0022 0.0 9.0
22  1 1 2   0   0 -1.951272e+03 -1.605632e+02  2.822407e+03  3.435000e+03 0.0 0.0 9.0
#pdf 21 2 6.014588e-01 2.359498e-01 5000.0 6.271265e-04 7.952851e-02
</event>
<event>
4 7 1.0 5000.0 7.905138e-03 7.739137e-02
 2 -1 0 0 101   0  0.000000e+00  0.000000e+00  2.757081e+03  2.757081e+03 0.0 0.0 9.0
21 -1 0 0 103 101  0.000000e+00  0.000000e+00 -2.116188e+03  2.116188e+03 0.0 0.0 9.0
22  1 1 2   0   0 -2.388352e+03 -2.264257e+02  6.039924e+02  2.473924e+03 0.0 0.0 9.0
 2  1 1 2 103   0  2.388352e+03  2.264257e+02  3.690089e+01  2.399345e+03 0.0022 0.0 9.0
#pdf 2 21 4.241663e-01 3.255673e-01 5000.0 1.219874e-01 2.187944e-01
</event>
<event>
4 7 1.0 5000.0 7.905138e-03 7.739137e-02
 2 -1 0 0 101   0  0.000000e+00  0.000000e+00  2.410649e+03  2.410649e+03 0.0 0.0 9.0
21 -1 0 0 103 101  0.000000e+00  0.000000e+00 -2.583648e+03  2.583648e+03 0.0 0.0 9.0
22  1 1 2   0   0 -1.272312e+03 -1.127359e+03 -1.914767e+03  2.560479e+03 0.0 0.0 9.0
 2  1 1 2 103   0  1.272312e+03  1.127359e+03  1.741768e+03  2.433818e+03 0.0022 0.0 9.0
#pdf 2 21 3.708690e-01 3.974843e-01 5000.0 1.700988e-01 1.448394e-01
</event>
<event>
4 7 1.0 5000.0 7.905138e-03 7.739137e-02
21 -1 0 0 103 101  0.000000e+00  0.000000e+00  3.908564e+03  3.908564e+03 0.0 0.0 9.0
 2 -1 0 0 101   0  0.000000e+00  0.000000e+00 -1.564516e+03  1.564516e+03 0.0 0.0 9.0
 2  1 1 2 103   0  1.136462e+03 -8.035467e+01  3.600825e+03  3.776764e+03 0.0022 0.0 9.0
22  1 1 2   0   0 -1.136462e+03  8.035467e+01 -1.256777e+03  1.696317e+03 0.0 0.0 9.0
#pdf 21 2 6.013176e-01 2.406948e-01 5000.0 6.285412e-04 7.496067e-02
</event>
<event>
4 7 1.0 5000.0 7.905138e-03 7.739137e-02
21 -1 0 0 103 101  0.000000e+00  0.000000e+00  2.795680e+03  2.795680e+03 0.0 0.0 9.0
 2 -1 0 0 101   0  0.000000e+00  0.000000e+00 -2.837102e+03  2.837102e+03 0.0 0.0 9.0
 2  1 1 2 103   0 -7.000549e+02  2.245554e+02  2.698025e+03  2.796398e+03 0.0022 0.0 9.0
22  1 1 2   0   0  7.000549e+02 -2.245554e+02 -2.739447e+03  2.836384e+03 0.0 0.0 9.0
#pdf 21 2 4.301046e-01 4.364772e-01 5000.0 7.141458e-03 6.582985e-03
</event>
<event>
4 7 1.0 5000.0 7.905138e-03 7.739137e-02
21 -1 0 0 103 101  0.000000e+00  0.000000e+00  2.164043e+03  2.164043e+03 0.0 0.0 9.0
 2 -1 0 0 101   0  0.000000e+00  0.000000e+00 -2.893637e+03  2.893637e+03 0.0 0.0 9.0
22  1 1 2   0   0  6.187641e+02  1.404490e+03  1.632580e+03  2.240709e+03 0.0 0.0 9.0
 2  1 1 2 103   0 -6.187641e+02 -1.404490e+03 -2.362173e+03  2.816971e+03 0.0022 0.0 9.0
#pdf 21 2 3.329298e-01 4.451749e-01 5000.0 2.406619e-02 5.873885e-03
</event>
<event>
4 7 1.0 5000.0 7.905138e-03 7.739137e-02
21 -1 0 0 103 101  0.000000e+00  0.000000e+00  2.110041e+03  2.110041e+03 0.0 0.0 9.0
 2 -1 0 0 101   0  0.000000e+00  0.000000e+00 -2.886534e+03  2.886534e+03 0.0 0.0 9.0
22  1 1 2   0   0  1.225927e+03 -1.680844e+03  9.557009e+02  2.289432e+03 0.0 0.0 9.0
 2  1 1 2 103   0 -1.225927e+03  1.680844e+03 -1.732193e+03  2.707144e+03 0.0022 0.0 9.0
#pdf 21 2 3.246218e-01 4.440821e-01 5000.0 2.664259e-02 5.960978e-03
</event>
<event>
4 7 1.0 5000.0 7.905138e-03 7.739137e-02
 2 -1 0 0 101   0  0.000000e+00  0.000000e+00  1.046834e+03  1.046834e+03 0.0 0.0 9.0
21 -1 0 0 103 101  0.000000e+00  0.000000e+00 -4.742152e+03  4.742152e+03 0.0 0.0 9.0
22  1 1 2   0   0 -8.854696e+02 -2.034557e+03 -2.109954e+03  3.061925e+03 0.0 0.0 9.0
 2  1 1 2 103   0  8.854696e+02  2.034557e+03 -1.585364e+03  2.727060e+03 0.0022 0.0 9.0
#pdf 2 21 1.610513e-01 7.295618e-01 5000.0 4.351938e-01 5.855572e-03
</event>
<event>
4 7 1.0 5000.0 7.905138e-03 7.739137e-02
 2 -1 0 0 101   0  0.000000e+00  0.000000e+00  1.246837e+03  1.246837e+03 0.0 0.0 9.0
21 -1 0 0 103 101  0.000000e+00  0.000000e+00 -4.899073e+03  4.899073e+03 0.0 0.0 9.0
22  1 1 2   0   0  2.441051e+03 -3.007033e+02 -2.128622e+03  3.252720e+03 0.0 0.0 9.0
 2  1 1 2 103   0 -2.441051e+03  3.007033e+02 -1.523614e+03  2.893190e+03 0.0022 0.0 9.0
#pdf 2 21 1.918211e-01 7.537035e-01 5000.0 3.933282e-01 3.990824e-03
</event>
<event>
4 7 1.0 5000.0 7.905138e-03 7.739137e-02
 2 -1 0 0 101   0  0.000000e+00  0.000000e+00  2.852922e+03  2.852922e+03 0.0 0.0 9.0
21 -1 0 0 103 101  0.000000e+00  0.000000e+00 -2.184288e+03  2.184288e+03 0.0 0.0 9.0
 2  1 1 2 103   0 -7.721762e+02  9.996288e+02 -1.838064e+03  2.230245e+03 0.0022 0.0 9.0
22  1 1 2   0   0  7.721762e+02 -9.996288e+02  2.506698e+03  2.806964e+03 0.0 0.0 9.0
#pdf 2 21 4.389110e-01 3.360442e-01 5000.0 1.104589e-01 2.069199e-01
</event>
<event>
4 7 1.0 5000.0 7.905138e-03 7.739137e-02
 2 -1 0 0 101   0  0.000000e+00  0.000000e+00  2.443558e+03  2.443558e+03 0.0 0.0 9.0
21 -1 0 0 103 101  0.000000e+00  0.000000e+00 -2.573744e+03  2.573744e+03 0.0 0.0 9.0
22  1 1 2   0   0  9.142529e+02  2.427302e+02  2.258256e+03  2.448366e+03 0.0 0.0 9.0
 2  1 1 2 103   0 -9.142529e+02 -2.427302e+02 -2.388442e+03  2.568936e+03 0.0022 0.0 9.0
#pdf 2 21 3.759320e-01 3.959606e-01 5000.0 1.651102e-01 1.462207e-01
</event>
<event>
4 7 1.0 5000.0 7.905138e-03 7.739137e-02
 2 -1 0 0 101   0  0.000000e+00  0.000000e+00  2.384174e+03  2.384174e+03 0.0 0.0 9.0
21 -1 0 0 103 101  0.000000e+00  0.000000e+00 -3.260808e+03  3.260808e+03 0.0 0.0 9.0
22  1 1 2   0   0  1.426658e+03  1.567731e+03 -2.271970e+03  3.107247e+03 0.0 0.0 9.0
 2  1 1 2 103   0 -1.426658e+03 -1.567731e+03  1.395337e+03  2.537735e+03 0.0022 0.0 9.0
#pdf 2 21 3.667961e-01 5.016627e-01 5000.0 1.741928e-01 6.953489e-02
</event>
<event>
4 7 1.0 5000.0 7.905138e-03 7.739137e-02
21 -1 0 0 103 101  0.000000e+00  0.000000e+00  1.950813e+03  1.950813e+03 0.0 0.0 9.0
 2 -1 0 0 101   0  0.000000e+00  0.000000e+00 -2.860202e+03  2.860202e+03 0.0 0.0 9.0
22  1 1 2   0   0  2.031916e+03 -9.355237e+02  3.180723e+02  2.259437e+03 0.0 0.0 9.0
 2  1 1 2 103   0 -2.031916e+03  9.355237e+02 -1.227461e+03  2.551577e+03 0.0022 0.0 9.0
#pdf 21 2 3.001251e-01 4.400310e-01 5000.0 3.595474e-02 6.288018e-03
</event>
<event>
4 7 1.0 5000.0 7.905138e-03 7.739137e-02
 2 -1 0 0 101   0  0.000000e+00  0.000000e+00  3.072718e+03  3.072718e+03 0.0 0.0 9.0
21 -1 0 0 103 101  0.000000e+00  0.000000e+00 -2.079886e+03  2.079886e+03 0.0 0.0 9.0
 2  1 1 2 103   0 -8.358051e+02  1.811423e+03 -1.086003e+03  2.271393e+03 0.0022 0.0 9.0
22  1 1 2   0   0  8.358051e+02 -1.811423e+03  2.078834e+03  2.881211e+03 0.0 0.0 9.0
#pdf 2 21 4.727258e-01 3.199825e-01 5000.0 8.679034e-02 2.252686e-01
</event>
<event>
4 7 1.0 5000.0 7.905138e-03 7.739137e-02
 2 -1 0 0 101   0  0.000000e+00  0.000000e+00  3.141434e+03  3.141434e+03 0.0 0.0 9.0
21 -1 0 0 103 101  0.000000e+00  0.000000e+00 -1.425042e+03  1.425042e+03 0.0 0.0 9.0
22  1 1 2   0   0  2.559647e+02 -2.094708e+03  6.932688e+02  2.221247e+03 0.0 0.0 9.0
 2  1 1 2 103   0 -2.559647e+02  2.094708e+03  1.023124e+03  2.345229e+03 0.0022 0.0 9.0
#pdf 2 21 4.832976e-01 2.192372e-01 5000.0 8.017394e-02 3.554580e-01
</event>
<event>
4 7 1.0 5000.0 7.905138e-03 7.739137e-02
21 -1 0 0 103 101  0.000000e+00  0.000000e+00  3.112291e+03  3.112291e+03 0.0 0.0 9.0
 2 -1 0 0 101   0  0.000000e+00  0.000000e+00 -1.948106e+03  1.948106e+03 0.0 0.0 9.0
 2  1 1 2 103   0  4.440549e+02  3.591749e+02 -1.879103e+03  1.963981e+03 0.0022 0.0 9.0
22  1 1 2   0   0 -4.440549e+02 -3.591749e+02  3.043289e+03  3.096417e+03 0.0 0.0 9.0
#pdf 21 2 4.788141e-01 2.997086e-01 5000.0 3.762271e-03 3.614379e-02
</event>
<event>
4 7 1.0 5000.0 7.905138e-03 7.739137e-02
21 -1 0 0 103 101  0.000000e+00  0.000000e+00  3.838099e+03  3.838099e+03 0.0 0.0 9.0
 2 -1 0 0 101   0  0.000000e+00  0.000000e+00 -1.551991e+03  1.551991e+03 0.0 0.0 9.0
 2  1 1 2 103   0 -1.961279e+03 -8.121631e+02  2.472950e+03  3.259096e+03 0.0022 0.0 9.0
22  1 1 2   0   0  1.961279e+03  8.121631e+02 -1.868418e+02  2.130994e+03 0.0 0.0 9.0
#pdf 21 2 5.904768e-01 2.387678e-01 5000.0 7.464184e-04 7.679072e-02
</event>
<event>
4 7 1.0 5000.0 7.905138e-03 7.739137e-02
 2 -1 0 0 101   0  0.000000e+00  0.000000e+00  2.120580e+03  2.120580e+03 0.0 0.0 9.0
21 -1 0 0 103 101  0.000000e+00  0.000000e+00 -2.989758e+03  2.989758e+03 0.0 0.0 9.0
 2  1 1 2 103   0 -4.446553e+02 -6.177679e+02 -2.870215e+03  2.969426e+03 0.0022 0.0 9.0
22  1 1 2   0   0  4.446553e+02  6.177679e+02  2.001037e+03  2.140912e+03 0.0 0.0 9.0
#pdf 2 21 3.262430e-01 4.599627e-01 5000.0 2.180174e-01 9.525933e-02
</event>
<event>
4 7 1.0 5000.0 7.905138e-03 7.739137e-02
21 -1 0 0 103 101  0.000000e+00  0.000000e+00  3.596162e+03  3.596162e+03 0.0 0.0 9.0
 2 -1 0 0 101   0  0.000000e+00  0.000000e+00 -1.736894e+03  1.736894e+03 0.0 0.0 9.0
 2  1 1 2 103   0 -2.562514e+01 -2.171785e+03  2.248866e+03  3.126453e+03 0.0022 0.0 9.0
22  1 1 2   0   0  2.562514e+01  2.171785e+03 -3.895983e+02  2.206603e+03 0.0 0.0 9.0
#pdf 21 2 5.532557e-01 2.672144e-01 5000.0 1.316954e-03 5.386206e-02
</event>
<event>
4 7 1.0 5000.0 7.905138e-03 7.739137e-02
 2 -1 0 0 101   0  0.000000e+00  0.000000e+00  1.635942e+03  1.635942e+03 0.0 0.0 9.0
21 -1 0 0 103 101  0.000000e+00  0.000000e+00 -3.891278e+03  3.891278e+03 0.0 0.0 9.0
 2  1 1 2 103   0 -1.303444e+03  1.319541e+01 -3.493886e+03  3.729126e+03 0.0022 0.0 9.0
22  1 1 2   0   0  1.303444e+03 -1.319541e+01  1.238550e+03  1.798095e+03 0.0 0.0 9.0
#pdf 2 21 2.516835e-01 5.986582e-01 5000.0 3.113413e-01 2.925536e-02
</event>
<event>
4 7 1.0 5000.0 7.905138e-03 7.739137e-02
 2 -1 0 0 101   0  0.000000e+00  0.000000e+00  2.329636e+03  2.329636e+03 0.0 0.0 9.0
21 -1 0 0 103 101  0.000000e+00  0.000000e+00 -2.646294e+03  2.646294e+03 0.0 0.0 9.0
 2  1 1 2 103   0  1.589927e+03  1.905419e+03 -2.385654e+02  2.493071e+03 0.0022 0.0 9.0
22  1 1 2   0   0 -1.589927e+03 -1.905419e+03 -7.809223e+01  2.482859e+03 0.0 0.0 9.0
#pdf 2 21 3.584056e-01 4.071221e-01 5000.0 1.828028e-01 1.362919e-01
</event>
<event>
4 7 1.0 5000.0 7.905138e-03 7.739137e-02
21 -1 0 0 103 101  0.000000e+00  0.000000e+00  2.580592e+03  2.580592e+03 0.0 0.0 9.0
 2 -1 0 0 101   0  0.000000e+00  0.000000e+00 -2.670471e+03  2.670471e+03 0.0 0.0 9.0
22  1 1 2   0   0  2.439382e+03 -1.825261e+02 -9.977055e+02  2.641839e+03 0.0 0.0 9.0
 2  1 1 2 103   0 -2.439382e+03  1.825261e+02  9.078269e+02  2.609224e+03 0.0022 0.0 9.0
#pdf 21 2 3.970142e-01 4.108416e-01 5000.0 1.088056e-02 9.135366e-03
</event>
<event>
4 7 1.0 5000.0 7.905138e-03 7.739137e-02
21 -1 0 0 103 101  0.000000e+00  0.000000e+00  3.260708e+03  3.260708e+03 0.0 0.0 9.0
 2 -1 0 0 101   0  0.000000e+00  0.000000e+00 -1.926139e+03  1.926139e+03 0.0 0.0 9.0
 2  1 1 2 103   0  8.294435e+02  1.146061e+03  2.807966e+03  3.144218e+03 0.0022 0.0 9.0
22  1 1 2   0   0 -8.294435e+02 -1.146061e+03 -1.473397e+03  2.042628e+03 0.0 0.0 9.0
#pdf 21 2 5.016473e-01 2.963290e-01 5000.0 2.754744e-03 3.770958e-02
</event>
<event>
4 7 1.0 5000.0 7.905138e-03 7.739137e-02
21 -1 0 0 103 101  0.000000e+00  0.000000e+00  2.537690e+03  2.537690e+03 0.0 0.0 9.0
 2 -1 0 0 101   0  0.000000e+00  0.000000e+00 -2.158037e+03  2.158037e+03 0.0 0.0 9.0
 2  1 1 2 103   0  1.528203e+03 -1.694212e+03  7.117927e+02  2.390065e+03 0.0022 0.0 9.0
22  1 1 2   0   0 -1.528203e+03  1.694212e+03 -3.321395e+02  2.305662e+03 0.0 0.0 9.0
#pdf 21 2 3.904138e-01 3.320057e-01 5000.0 1.182173e-02 2.434063e-02
</event>
<event>
4 7 1.0 5000.0 7.905138e-03 7.739137e-02
 2 -1 0 0 101   0  0.000000e+00  0.000000e+00  4.136426e+03  4.136426e+03 0.0 0.0 9.0
21 -1 0 0 103 101  0.000000e+00  0.000000e+00 -1.504536e+03  1.504536e+03 0.0 0.0 9.0
 2  1 1 2 103   0  2.096349e+03  1.286486e+03  1.787118e+03  3.040315e+03 0.0022 0.0 9.0
22  1 1 2   0   0 -2.096349e+03 -1.286486e+03  8.447721e+02  2.600647e+03 0.0 0.0 9.0
#pdf 2 21 6.363732e-01 2.314671e-01 5000.0 1.961287e-02 3.387177e-01
</event>
<event>
4 7 1.0 5000.0 7.905138e-03 7.739137e-02
 2 -1 0 0 101   0  0.000000e+00  0.000000e+00  1.239945e+03  1.239945e+03 0.0 0.0 9.0
21 -1 0 0 103 101  0.000000e+00  0.000000e+00 -5.014121e+03  5.014121e+03 0.0 0.0 9.0
22  1 1 2   0   0  2.330461e+03  7.300857e+02 -1.256083e+03  2.746237e+03 0.0 0.0 9.0
 2  1 1 2 103   0 -2.330461e+03 -7.300857e+02 -2.518093e+03  3.507829e+03 0.0022 0.0 9.0
#pdf 2 21 1.907608e-01 7.714032e-01 5000.0 3.947740e-01 2.939204e-03
</event>
<event>
4 7 1.0 5000.0 7.905138e-03 7.739137e-02
21 -1 0 0 103 101  0.000000e+00  0.000000e+00  4.522041e+03  4.522041e+03 0.0 0.0 9.0
 2 -1 0 0 101   0  0.000000e+00  0.000000e+00 -1.376581e+03  1.376581e+03 0.0 0.0 9.0
 2  1 1 2 103   0 -1.786948e+03  7.500285e+02 -2.847882e+02  1.958783e+03 0.0022 0.0 9.0
22  1 1 2   0   0  1.786948e+03 -7.500285e+02  3.430248e+03  3.939839e+03 0.0 0.0 9.0
#pdf 21 2 6.956986e-01 2.117817e-01 5000.0 1.179649e-04 1.080473e-01
</event>
<event>
4 7 1.0 5000.0 7.905138e-03 7.739137e-02
 2 -1 0 0 101   0  0.000000e+00  0.000000e+00  4.322095e+03  4.322095e+03 0.0 0.0 9.0
21 -1 0 0 103 101  0.000000e+00  0.000000e+00 -1.458859e+03  1.458859e+03 0.0 0.0 9.0
 2  1 1 2 103   0 -2.148822e+03 -5.039345e+02  5.319910e+01  2.207762e+03 0.0022 0.0 9.0
22  1 1 2   0   0  2.148822e+03  5.039345e+02  2.810037e+03  3.573191e+03 0.0 0.0 9.0
#pdf 2 21 6.649377e-01 2.244398e-01 5000.0 1.405228e-02 3.483357e-01
</event>
<event>
4 7 1.0 5000.0 7.905138e-03 7.739137e-02
21 -1 0 0 103 101  0.000000e+00  0.000000e+00  1.710843e+03  1.710843e+03 0.0 0.0 9.0
 2 -1 0 0 101   0  0.000000e+00  0.000000e+00 -2.564887e+03  2.564887e+03 0.0 0.0 9.0
 2  1 1 2 103   0 -1.667696e+03  1.266620e+03 -3.751565e+02  2.127506e+03 0.0022 0.0 9.0
22  1 1 2   0   0  1.667696e+03 -1.266620e+03 -4.788878e+02  2.148225e+03 0.0 0.0 9.0
#pdf 21 2 2.632066e-01 3.945981e-01 5000.0 5.659840e-02 1.121586e-02
</event>
<event>
4 7 1.0 5000.0 7.905138e-03 7.739137e-02
 2 -1 0 0 101   0  0.000000e+00  0.000000e+00  2.177066e+03  2.177066e+03 0.0 0.0 9.0
21 -1 0 0 103 101  0.000000e+00  0.000000e+00 -2.881219e+03  2.881219e+03 0.0 0.0 9.0
22  1 1 2   0   0  2.058344e+03 -1.047585e+03  6.261538e+02  2.392965e+03 0.0 0.0 9.0
 2  1 1 2 103   0 -2.058344e+03  1.047585e+03 -1.330307e+03  2.665320e+03 0.0022 0.0 9.0
#pdf 2 21 3.349332e-01 4.432645e-01 5000.0 2.081605e-01 1.071864e-01
</event>
<event>
4 7 1.0 5000.0 7.905138e-03 7.739137e-02
21 -1 0 0 103 101  0.000000e+00  0.000000e+00  2.201637e+03  2.201637e+03 0.0 0.0 9.0
 2 -1 0 0 101   0  0.000000e+00  0.000000e+00 -2.760383e+03  2.760383e+03 0.0 0.0 9.0
 2  1 1 2 103   0  5.250601e+02  2.174687e+03 -1.321573e+03  2.598366e+03 0.0022 0.0 9.0
22  1 1 2   0   0 -5.250601e+02 -2.174687e+03  7.628272e+02  2.363653e+03 0.0 0.0 9.0
#pdf 21 2 3.387134e-01 4.246743e-01 5000.0 2.241360e-02 7.658220e-03
</event>
<event>
4 7 1.0 5000.0 7.905138e-03 7.739137e-02
 2 -1 0 0 101   0  0.000000e+00  0.000000e+00  2.828941e+03  2.828941e+03 0.0 0.0 9.0
21 -1 0 0 103 101  0.000000e+00  0.000000e+00 -2.297798e+03  2.297798e+03 0.0 0.0 9.0
 2  1 1 2 103   0 -1.029002e+03  5.109122e+02 -2.022806e+03  2.326288e+03 0.0022 0.0 9.0
22  1 1 2   0   0  1.029002e+03 -5.109122e+02  2.553948e+03  2.800451e+03 0.0 0.0 9.0
#pdf 2 21 4.352216e-01 3.535075e-01 5000.0 1.132736e-01 1.879385e-01
</event>
<event>
4 7 1.0 5000.0 7.905138e-03 7.739137e-02
 2 -1 0 0 101   0  0.000000e+00  0.000000e+00  1.786785e+03  1.786785e+03 0.0 0.0 9.0
21 -1 0 0 103 101  0.000000e+00  0.000000e+00 -3.543217e+03  3.543217e+03 0.0 0.0 9.0
 2  1 1 2 103   0 -2.372698e+03 -8.348646e+02 -8.089709e+02  2.642182e+03 0.0022 0.0 9.0
22  1 1 2   0   0  2.372698e+03  8.348646e+02 -9.474614e+02  2.687820e+03 0.0 0.0 9.0
#pdf 2 21 2.748900e-01 5.451103e-01 5000.0 2.808408e-01 4.840036e-02
</event>
<event>
4 7 1.0 5000.0 7.905138e-03 7.739137e-02
21 -1 0 0 103 101  0.000000e+00  0.000000e+00  3.431427e+03  3.431427e+03 0.0 0.0 9.0
 2 -1 0 0 101   0  0.000000e+00  0.000000e+00 -1.807757e+03  1.807757e+03 0.0 0.0 9.0
 2  1 1 2 103   0 -1.121366e+03  1.779182e+03 -5.915123e+02  2.184682e+03 0.0022 0.0 9.0
22  1 1 2   0   0  1.121366e+03 -1.779182e+03  2.215182e+03  3.054501e+03 0.0 0.0 9.0
#pdf 21 2 5.279118e-01 2.781165e-01 5000.0 1.905965e-03 4.710444e-02
</event>
<event>
4 7 1.0 5000.0 7.905138e-03 7.739137e-02
 2 -1 0 0 101   0  0.000000e+00  0.000000e+00  2.684297e+03  2.684297e+03 0.0 0.0 9.0
21 -1 0 0 103 101  0.000000e+00  0.000000e+00 -2.663452e+03  2.663452e+03 0.0 0.0 9.0
22  1 1 2   0   0 -1.937478e+03  7.210693e+02 -1.685390e+03  2.667265e+03 0.0 0.0 9.0
 2  1 1 2 103   0  1.937478e+03 -7.210693e+02  1.706235e+03  2.680485e+03 0.0022 0.0 9.0
#pdf 2 21 4.129688e-01 4.097619e-01 5000.0 1.312717e-01 1.340109e-01
</event>
<event>
4 7 1.0 5000.0 7.905138e-03 7.739137e-02
21 -1 0 0 103 101  0.000000e+00  0.000000e+00  1.686113e+03  1.686113e+03 0.0 0.0 9.0
 2 -1 0 0 101   0  0.000000e+00  0.000000e+00 -3.506981e+03  3.506981e+03 0.0 0.0 9.0
 2  1 1 2 103   0  9.483700e+02  1.952592e+02 -3.292262e+03  3.431694e+03 0.0022 0.0 9.0
22  1 1 2   0   0 -9.483700e+02 -1.952592e+02  1.471394e+03  1.761401e+03 0.0 0.0 9.0
#pdf 21 2 2.594020e-01 5.395356e-01 5000.0 5.935084e-02 1.610574e-03
</event>
<event>
4 7 1.0 5000.0 7.905138e-03 7.739137e-02
21 -1 0 0 103 101  0.000000e+00  0.000000e+00  1.988197e+03  1.988197e+03 0.0 0.0 9.0
 2 -1 0 0 101   0  0.000000e+00  0.000000e+00 -3.422252e+03  3.422252e+03 0.0 0.0 9.0
22  1 1 2   0   0 -1.574693e+03  5.365570e+02  1.366616e+03  2.152949e+03 0.0 0.0 9.0
 2  1 1 2 103   0  1.574693e+03 -5.365570e+02 -2.800671e+03  3.257501e+03 0.0022 0.0 9.0
#pdf 21 2 3.058765e-01 5.265004e-01 5000.0 3.355251e-02 1.944518e-03
</event>
<event>
4 7 1.0 5000.0 7.905138e-03 7.739137e-02
21 -1 0 0 103 101  0.000000e+00  0.000000e+00  2.769021e+03  2.769021e+03 0.0 0.0 9.0
 2 -1 0 0 101   0  0.000000e+00  0.000000e+00 -2.313746e+03  2.313746e+03 0.0 0.0 9.0
 2  1 1 2 103   0 -1.838588e+02  1.167313e+03  2.475060e+03  2.742690e+03 0.0022 0.0 9.0
22  1 1 2   0   0  1.838588e+02 -1.167313e+03 -2.019786e+03  2.340077e+03 0.0 0.0 9.0
#pdf 21 2 4.260032e-01 3.559609e-01 5000.0 7.528375e-03 1.812670e-02
</event>
<event>
4 7 1.0 5000.0 7.905138e-03 7.739137e-02
21 -1 0 0 103 101  0.000000e+00  0.000000e+00  3.748501e+03  3.748501e+03 0.0 0.0 9.0
 2 -1 0 0 101   0  0.000000e+00  0.000000e+00 -1.665544e+03  1.665544e+03 0.0 0.0 9.0
 2  1 1 2 103   0 -3.400327e+02  1.575759e+03 -1.026820e+03  1.911281e+03 0.0022 0.0 9.0
22  1 1 2   0   0  3.400327e+02 -1.575759e+03  3.109778e+03  3.502764e+03 0.0 0.0 9.0
#pdf 21 2 5.766925e-01 2.562375e-01 5000.0 9.246627e-04 6.175325e-02
</event>
<event>
4 7 1.0 5000.0 7.905138e-03 7.739137e-02
21 -1 0 0 103 101  0.000000e+00  0.000000e+00  2.314401e+03  2.314401e+03 0.0 0.0 9.0
 2 -1 0 0 101   0  0.000000e+00  0.000000e+00 -2.747859e+03  2.747859e+03 0.0 0.0 9.0
22  1 1 2   0   0  2.377829e+03  8.204886e+02 -3.973207e+02  2.546593e+03 0.0 0.0 9.0
 2  1 1 2 103   0 -2.377829e+03 -8.204886e+02 -3.613755e+01  2.515667e+03 0.0022 0.0 9.0
#pdf 21 2 3.560617e-01 4.227475e-01 5000.0 1.810410e-02 7.849821e-03
</event>
<event>
4 7 1.0 5000.0 7.905138e-03 7.739137e-02
 2 -1 0 0 101   0  0.000000e+00  0.000000e+00  4.798120e+03  4.798120e+03 0.0 0.0 9.0
21 -1 0 0 103 101  0.000000e+00  0.000000e+00 -1.302346e+03  1.302346e+03 0.0 0.0 9.0
 2  1 1 2 103   0  8.940883e+02  2.017715e+03  3.180396e+03  3.871109e+03 0.0022 0.0 9.0
22  1 1 2   0   0 -8.940883e+02 -2.017715e+03  3.153782e+02  2.229357e+03 0.0 0.0 9.0
#pdf 2 21 7.381723e-01 2.003609e-01 5000.0 5.127707e-03 3.815289e-01
</event>
<event>
4 7 1.0 5000.0 7.905138e-03 7.739137e-02
 2 -1 0 0 101   0  0.000000e+00  0.000000e+00  1.397340e+03  1.397340e+03 0.0 0.0 9.0
21 -1 0 0 103 101  0.000000e+00  0.000000e+00 -4.344097e+03  4.344097e+03 0.0 0.0 9.0
22  1 1 2   0   0  2.352642e+03 -6.359699e+02 -1.051985e+03  2.654441e+03 0.0 0.0 9.0
 2  1 1 2 103   0 -2.352642e+03  6.359699e+02 -1.894772e+03  3.086996e+03 0.0022 0.0 9.0
#pdf 2 21 2.149754e-01 6.683227e-01 5000.0 3.613175e-01 1.348453e-02
</event>
<event>
4 7 1.0 5000.0 7.905138e-03 7.739137e-02
 2 -1 0 0 101   0  0.000000e+00  0.000000e+00  3.265060e+03  3.265060e+03 0.0 0.0 9.0
21 -1 0 0 103 101  0.000000e+00  0.000000e+00 -1.985730e+03  1.985730e+03 0.0 0.0 9.0
22  1 1 2   0   0  1.395800e+03  6.713537e+02 -1.444159e+03  2.117681e+03 0.0 0.0 9.0
 2  1 1 2 103   0 -1.395800e+03 -6.713537e+02  2.723489e+03  3.133109e+03 0.0022 0.0 9.0
#pdf 2 21 5.023169e-01 3.054969e-01 5000.0 6.917541e-02 2.424889e-01
</event>
<event>
4 7 1.0 5000.0 7.905138e-03 7.739137e-02
21 -1 0 0 103 101  0.000000e+00  0.000000e+00  2.185434e+03  2.185434e+03 0.0 0.0 9.0
 2 -1 0 0 101   0  0.000000e+00  0.000000e+00 -2.701887e+03  2.701887e+03 0.0 0.0 9.0
22  1 1 2   0   0  2.095832e+03  4.657825e+02 -1.402762e+03  2.564606e+03 0.0 0.0 9.0
 2  1 1 2 103   0 -2.095832e+03 -4.657825e+02  8.863092e+02  2.322716e+03 0.0022 0.0 9.0
#pdf 21 2 3.362207e-01 4.156750e-01 5000.0 2.311126e-02 8.590620e-03
</event>
<event>
4 7 1.0 5000.0 7.905138e-03 7.739137e-02
 2 -1 0 0 101   0  0.000000e+00  0.000000e+00  2.061078e+03  2.061078e+03 0.0 0.0 9.0
21 -1 0 0 103 101  0.000000e+00  0.000000e+00 -2.869725e+03  2.869725e+03 0.0 0.0 9.0
22  1 1 2   0   0  4.893760e+02 -2.219536e+03  4.729440e+02  2.321530e+03 0.0 0.0 9.0
 2  1 1 2 103   0 -4.893760e+02  2.219536e+03 -1.281591e+03  2.609272e+03 0.0022 0.0 9.0
#pdf 2 21 3.170889e-01 4.414961e-01 5000.0 2.286569e-01 1.085098e-01
</event>
<event>
4 7 1.0 5000.0 7.905138e-03 7.739137e-02
 2 -1 0 0 101   0  0.000000e+00  0.000000e+00  3.014516e+03  3.014516e+03 0.0 0.0 9.0
21 -1 0 0 103 101  0.000000e+00  0.000000e+00 -2.077337e+03  2.077337e+03 0.0 0.0 9.0
 2  1 1 2 103   0  1.941104e+03  2.486896e+02 -1.118144e+03  2.253881e+03 0.0022 0.0 9.0
22  1 1 2   0   0 -1.941104e+03 -2.486896e+02  2.055324e+03  2.837972e+03 0.0 0.0 9.0
#pdf 2 21 4.637717e-01 3.195903e-01 5000.0 9.267562e-02 2.257266e-01
</event>
<event>
4 7 1.0 5000.0 7.905138e-03 7.739137e-02
21 -1 0 0 103 101  0.000000e+00  0.000000e+00  2.772152e+03  2.772152e+03 0.0 0.0 9.0
 2 -1 0 0 101   0  0.000000e+00  0.000000e+00 -2.282451e+03  2.282451e+03 0.0 0.0 9.0
22  1 1 2   0   0  1.792397e+03 -1.692085e+01 -1.528236e+03  2.355521e+03 0.0 0.0 9.0
 2  1 1 2 103   0 -1.792397e+03  1.692085e+01  2.017937e+03  2.699082e+03 0.0022 0.0 9.0
#pdf 21 2 4.264850e-01 3.511463e-01 5000.0 7.481744e-03 1.924550e-02
</event>
<event>
4 7 1.0 5000.0 7.905138e-03 7.739137e-02
21 -1 0 0 103 101  0.000000e+00  0.000000e+00  1.903676e+03  1.903676e+03 0.0 0.0 9.0
 2 -1 0 0 101   0  0.000000e+00  0.000000e+00 -3.197322e+03  3.197322e+03 0.0 0.0 9.0
22  1 1 2   0   0  6.820726e+02  2.653115e+02  1.788873e+03  1.932791e+03 0.0 0.0 9.0
 2  1 1 2 103   0 -6.820726e+02 -2.653115e+02 -3.082519e+03  3.168207e+03 0.0022 0.0 9.0
#pdf 21 2 2.928732e-01 4.918957e-01 5000.0 3.934327e-02 3.150131e-03
</event>
<event>
4 7 1.0 5000.0 7.905138e-03 7.739137e-02
 2 -1 0 0 101   0  0.000000e+00  0.000000e+00  2.304509e+03  2.304509e+03 0.0 0.0 9.0
21 -1 0 0 103 101  0.000000e+00  0.000000e+00 -2.604188e+03  2.604188e+03 0.0 0.0 9.0
 2  1 1 2 103   0 -1.676288e+03  7.533654e+01  1.638365e+03  2.345177e+03 0.0022 0.0 9.0
22  1 1 2   0   0  1.676288e+03 -7.533654e+01 -1.938044e+03  2.563520e+03 0.0 0.0 9.0
#pdf 2 21 3.545398e-01 4.006443e-01 5000.0 1.868492e-01 1.420001e-01
</event>
<event>
4 7 1.0 5000.0 7.905138e-03 7.739137e-02
21 -1 0 0 103 101  0.000000e+00  0.000000e+00  2.646559e+03  2.646559e+03 0.0 0.0 9.0
 2 -1 0 0 101   0  0.000000e+00  0.000000e+00 -2.400070e+03  2.400070e+03 0.0 0.0 9.0
 2  1 1 2 103   0  8.756706e+02 -2.356096e+03 -6.120263e+01  2.514306e+03 0.0022 0.0 9.0
22  1 1 2   0   0 -8.756706e+02  2.356096e+03  3.076920e+02  2.532324e+03 0.0 0.0 9.0
#pdf 21 2 4.071630e-01 3.692415e-01 5000.0 9.573388e-03 1.538044e-02
</event>
<event>
4 7 1.0 5000.0 7.905138e-03 7.739137e-02
21 -1 0 0 103 101  0.000000e+00  0.000000e+00  1.522936e+03  1.522936e+03 0.0 0.0 9.0
 2 -1 0 0 101   0  0.000000e+00  0.000000e+00 -4.322759e+03  4.322759e+03 0.0 0.0 9.0
 2  1 1 2 103   0  7.179075e+02  9.749120e+02  1.177070e+03  1.688590e+03 0.0022 0.0 9.0
22  1 1 2   0   0 -7.179075e+02 -9.749120e+02 -3.976893e+03  4.157105e+03 0.0 0.0 9.0
#pdf 21 2 2.342979e-01 6.650399e-01 5000.0 8.117499e-02 2.110227e-04
</event>
<event>
4 7 1.0 5000.0 7.905138e-03 7.739137e-02
 2 -1 0 0 101   0  0.000000e+00  0.000000e+00  3.139776e+03  3.139776e+03 0.0 0.0 9.0
21 -1 0 0 103 101  0.000000e+00  0.000000e+00 -1.996924e+03  1.996924e+03 0.0 0.0 9.0
22  1 1 2   0   0 -4.574653e+02 -1.145313e+03  2.806642e+03  3.065658e+03 0.0 0.0 9.0
 2  1 1 2 103   0  4.574653e+02  1.145313e+03 -1.663791e+03  2.071042e+03 0.0022 0.0 9.0
#pdf 2 21 4.830424e-01 3.072191e-01 5000.0 8.032927e-02 2.404062e-01
</event>
<event>
4 7 1.0 5000.0 7.905138e-03 7.739137e-02
 2 -1 0 0 101   0  0.000000e+00  0.000000e+00  1.889619e+03  1.889619e+03 0.0 0.0 9.0
21 -1 0 0 103 101  0.000000e+00  0.000000e+00 -3.290702e+03  3.290702e+03 0.0 0.0 9.0
 2  1 1 2 103   0 -3.725359e+02  1.645254e+03  1.206995e+03  2.074243e+03 0.0022 0.0 9.0
22  1 1 2   0   0  3.725359e+02 -1.645254e+03 -2.608078e+03  3.106078e+03 0.0 0.0 9.0
#pdf 2 21 2.907106e-01 5.062618e-01 5000.0 2.607057e-01 6.703517e-02
</event>
<event>
4 7 1.0 5000.0 7.905138e-03 7.739137e-02
21 -1 0 0 103 101  0.000000e+00  0.000000e+00  1.783336e+03  1.783336e+03 0.0 0.0 9.0
 2 -1 0 0 101   0  0.000000e+00  0.000000e+00 -3.485526e+03  3.485526e+03 0.0 0.0 9.0
 2  1 1 2 103   0 -7.273575e+01 -5.870893e+02 -3.410290e+03  3.461220e+03 0.0022 0.0 9.0
22  1 1 2   0   0  7.273575e+01  5.870893e+02  1.708100e+03  1.807642e+03 0.0 0.0 9.0
#pdf 21 2 2.743594e-01 5.362347e-01 5000.0 4.933041e-02 1.690018e-03
</event>
<event>
4 7 1.0 5000.0 7.905138e-03 7.739137e-02
21 -1 0 0 103 101  0.000000e+00  0.000000e+00  3.285209e+03  3.285209e+03 0.0 0.0 9.0
 2 -1 0 0 101   0  0.000000e+00  0.000000e+00 -1.972903e+03  1.972903e+03 0.0 0.0 9.0
 2  1 1 2 103   0 -8.704394e+02 -1.584062e+03 -1.195336e+03  2.166967e+03 0.0022 0.0 9.0
22  1 1 2   0   0  8.704394e+02  1.584062e+03  2.507642e+03  3.091146e+03 0.0 0.0 9.0
#pdf 21 2 5.054168e-01 3.035236e-01 5000.0 2.614596e-03 3.452272e-02
</event>
<event>
4 7 1.0 5000.0 7.905138e-03 7.739137e-02
21 -1 0 0 103 101  0.000000e+00  0.000000e+00  1.575011e+03  1.575011e+03 0.0 0.0 9.0
 2 -1 0 0 101   0  0.000000e+00  0.000000e+00 -3.522987e+03  3.522987e+03 0.0 0.0 9.0
 2  1 1 2 103   0 -1.792752e+03  1.516804e+03 -1.173779e+03  2.625340e+03 0.0022 0.0 9.0
22  1 1 2   0   0  1.792752e+03 -1.516804e+03 -7.741964e+02  2.472658e+03 0.0 0.0 9.0
#pdf 21 2 2.423094e-01 5.419980e-01 5000.0 7.344814e-02 1.554263e-03
</event>
<event>
4 7 1.0 5000.0 7.905138e-03 7.739137e-02
 2 -1 0 0 101   0  0.000000e+00  0.000000e+00  2.804992e+03  2.804992e+03 0.0 0.0 9.0
21 -1 0 0 103 101  0.000000e+00  0.000000e+00 -2.184536e+03  2.184536e+03 0.0 0.0 9.0
22  1 1 2   0   0  2.215000e+03  4.588222e+02  1.323510e+03  2.620767e+03 0.0 0.0 9.0
 2  1 1 2 103   0 -2.215000e+03 -4.588222e+02 -7.030536e+02  2.368760e+03 0.0022 0.0 9.0
#pdf 2 21 4.315372e-01 3.360824e-01 5000.0 1.161278e-01 2.068774e-01
</event>
<event>
4 7 1.0 5000.0 7.905138e-03 7.739137e-02
 2 -1 0 0 101   0  0.000000e+00  0.000000e+00  2.979853e+03  2.979853e+03 0.0 0.0 9.0
21 -1 0 0 103 101  0.000000e+00  0.000000e+00 -2.163531e+03  2.163531e+03 0.0 0.0 9.0
 2  1 1 2 103   0 -2.493123e+03 -4.664878e+02  2.894687e+02  2.552854e+03 0.0022 0.0 9.0
22  1 1 2   0   0  2.493123e+03  4.664878e+02  5.268533e+02  2.590530e+03 0.0 0.0 9.0
#pdf 2 21 4.584389e-01 3.328509e-01 5000.0 9.630959e-02 2.104982e-01
</event>
<event>
4 7 1.0 5000.0 7.905138e-03 7.739137e-02
 2 -1 0 0 101   0  0.000000e+00  0.000000e+00  2.296906e+03  2.296906e+03 0.0 0.0 9.0
21 -1 0 0 103 101  0.000000e+00  0.000000e+00 -2.734965e+03  2.734965e+03 0.0 0.0 9.0
 2  1 1 2 103   0  4.576683e+02  3.117086e+02 -2.672796e+03  2.729553e+03 0.0022 0.0 9.0
22  1 1 2   0   0 -4.576683e+02 -3.117086e+02  2.234737e+03  2.302318e+03 0.0 0.0 9.0
#pdf 2 21 3.533702e-01 4.207639e-01 5000.0 1.880837e-01 1.247612e-01
</event>
<event>
4 7 1.0 5000.0 7.905138e-03 7.739137e-02
 2 -1 0 0 101   0  0.000000e+00  0.000000e+00  1.477700e+03  1.477700e+03 0.0 0.0 9.0
21 -1 0 0 103 101  0.000000e+00  0.000000e+00 -3.420292e+03  3.420292e+03 0.0 0.0 9.0
22  1 1 2   0   0  2.466920e+02 -1.874997e+03 -2.295502e+03  2.974189e+03 0.0 0.0 9.0
 2  1 1 2 103   0 -2.466920e+02  1.874997e+03  3.529104e+02  1.923803e+03 0.0022 0.0 9.0
#pdf 2 21 2.273385e-01 5.261987e-01 5000.0 3.443735e-01 5.693616e-02
</event>
<event>
4 7 1.0 5000.0 7.905138e-03 7.739137e-02
21 -1 0 0 103 101  0.000000e+00  0.000000e+00  3.537352e+03  3.537352e+03 0.0 0.0 9.0
 2 -1 0 0 101   0  0.000000e+00  0.000000e+00 -1.266459e+03  1.266459e+03 0.0 0.0 9.0
 2  1 1 2 103   0  5.696458e+02  1.958685e+03  1.776352e+03  2.704879e+03 0.0022 0.0 9.0
22  1 1 2   0   0 -5.696458e+02 -1.958685e+03  4.945409e+02  2.098932e+03 0.0 0.0 9.0
#pdf 21 2 5.442080e-01 1.948398e-01 5000.0 1.505328e-03 1.345430e-01
</event>
<event>
4 7 1.0 5000.0 7.905138e-03 7.739137e-02
21 -1 0 0 103 101  0.000000e+00  0.000000e+00  1.800641e+03  1.800641e+03 0.0 0.0 9.0
 2 -1 0 0 101   0  0.000000e+00  0.000000e+00 -3.345664e+03  3.345664e+03 0.0 0.0 9.0
22  1 1 2   0   0  1.622284e+03  3.115085e+02  1.130632e+03  2.001792e+03 0.0 0.0 9.0
 2  1 1 2 103   0 -1.622284e+03 -3.115085e+02 -2.675655e+03  3.144514e+03 0.0022 0.0 9.0
#pdf 21 2 2.770218e-01 5.147176e-01 5000.0 4.774279e-02 2.296895e-03
</event>
<event>
4 7 1.0 5000.0 7.905138e-03 7.739137e-02
 2 -1 0 0 101   0  0.000000e+00  0.000000e+00  1.877141e+03  1.877141e+03 0.0 0.0 9.0
21 -1 0 0 103 101  0.000000e+00  0.000000e+00 -3.303372e+03  3.303372e+03 0.0 0.0 9.0
22  1 1 2   0   0  4.717079e+02  2.306366e+03  1.313458e+02  2.357771e+03 0.0 0.0 9.0
 2  1 1 2 103   0 -4.717079e+02 -2.306366e+03 -1.557577e+03  2.822743e+03 0.0022 0.0 9.0
#pdf 2 21 2.887910e-01 5.082111e-01 5000.0 2.631190e-01 6.599504e-02
</event>
<event>
4 7 1.0 5000.0 7.905138e-03 7.739137e-02
21 -1 0 0 103 101  0.000000e+00  0.000000e+00  1.964452e+03  1.964452e+03 0.0 0.0 9.0
 2 -1 0 0 101   0  0.000000e+00  0.000000e+00 -3.244672e+03  3.244672e+03 0.0 0.0 9.0
22  1 1 2   0   0  5.449423e+02 -1.753004e+03 -2.428161e+03  3.044002e+03 0.0 0.0 9.0
 2  1 1 2 103   0 -5.449423e+02  1.753004e+03  1.147941e+03  2.165122e+03 0.0022 0.0 9.0
#pdf 21 2 3.022235e-01 4.991803e-01 5000.0 3.506507e-02 2.850556e-03
</event>
<event>
4 7 1.0 5000.0 7.905138e-03 7.739137e-02
 2 -1 0 0 101   0  0.000000e+00  0.000000e+00  2.116565e+03  2.116565e+03 0.0 0.0 9.0
21 -1 0 0 103 101  0.000000e+00  0.000000e+00 -2.954713e+03  2.954713e+03 0.0 0.0 9.0
 2  1 1 2 103   0  2.095973e+02 -2.452233e+03 -8.684974e+02  2.609917e+03 0.0022 0.0 9.0
22  1 1 2   0   0 -2.095973e+02  2.452233e+03  3.034897e+01  2.461361e+03 0.0 0.0 9.0
#pdf 2 21 3.256253e-01 4.545712e-01 5000.0 2.187277e-01 9.901207e-02
</event>
<event>
4 7 1.0 5000.0 7.905138e-03 7.739137e-02
21 -1 0 0 103 101  0.000000e+00  0.000000e+00  4.138911e+03  4.138911e+03 0.0 0.0 9.0
 2 -1 0 0 101   0  0.000000e+00  0.000000e+00 -1.492689e+03  1.492689e+03 0.0 0.0 9.0
 2  1 1 2 103   0 -2.798580e+02  2.312308e+03  3.400585e+02  2.353876e+03 0.0022 0.0 9.0
22  1 1 2   0   0  2.798580e+02 -2.312308e+03  2.306164e+03  3.277725e+03 0.0 0.0 9.0
#pdf 21 2 6.367556e-01 2.296445e-01 5000.0 3.490047e-04 8.602326e-02
</event>
<event>
4 7 1.0 5000.0 7.905138e-03 7.739137e-02
 2 -1 0 0 101   0  0.000000e+00  0.000000e+00  1.662025e+03  1.662025e+03 0.0 0.0 9.0
21 -1 0 0 103 101  0.000000e+00  0.000000e+00 -3.740475e+03  3.740475e+03 0.0 0.0 9.0
 2  1 1 2 103   0  2.090025e+03  1.078961e+03 -1.935492e+03  3.046062e+03 0.0022 0.0 9.0
22  1 1 2   0   0 -2.090025e+03 -1.078961e+03 -1.429573e+02  2.356438e+03 0.0 0.0 9.0
#pdf 2 21 2.556962e-01 5.754577e-01 5000.0 3.059944e-01 3.669009e-02
</event>
<event>
4 7 1.0 5000.0 7.905138e-03 7.739137e-02
21 -1 0 0 103 101  0.000000e+00  0.000000e+00  1.657735e+03  1.657735e+03 0.0 0.0 9.0
 2 -1 0 0 101   0  0.000000e+00  0.000000e+00 -3.774918e+03  3.774918e+03 0.0 0.0 9.0
 2  1 1 2 103   0  1.929549e+03 -2.405288e+02 -2.767489e+03  3.382309e+03 0.0022 0.0 9.0
22  1 1 2   0   0 -1.929549e+03  2.405288e+02  6.503057e+02  2.050344e+03 0.0 0.0 9.0
#pdf 21 2 2.550361e-01 5.807567e-01 5000.0 6.268934e-02 8.685912e-04
</event>
<event>
4 7 1.0 5000.0 7.905138e-03 7.739137e-02
 2 -1 0 0 101   0  0.000000e+00  0.000000e+00  1.645802e+03  1.645802e+03 0.0 0.0 9.0
21 -1 0 0 103 101  0.000000e+00  0.000000e+00 -3.839991e+03  3.839991e+03 0.0 0.0 9.0
22  1 1 2   0   0  9.490176e+02  2.213529e+03 -3.106722e+02  2.428346e+03 0.0 0.0 9.0
 2  1 1 2 103   0 -9.490176e+02 -2.213529e+03 -1.883516e+03  3.057447e+03 0.0022 0.0 9.0
#pdf 2 21 2.532003e-01 5.907678e-01 5000.0 3.093146e-01 3.164439e-02
</event>
<event>
4 7 1.0 5000.0 7.905138e-03 7.739137e-02
 2 -1 0 0 101   0  0.000000e+00  0.000000e+00  1.404786e+03  1.404786e+03 0.0 0.0 9.0
21 -1 0 0 103 101  0.000000e+00  0.000000e+00 -4.583285e+03  4.583285e+03 0.0 0.0 9.0
 2  1 1 2 103   0  2.102644e+03  1.419800e+03 -1.542153e+03  2.969036e+03 0.0022 0.0 9.0
22  1 1 2   0   0 -2.102644e+03 -1.419800e+03 -1.636347e+03  3.019035e+03 0.0 0.0 9.0
#pdf 2 21 2.161209e-01 7.051208e-01 5000.0 3.597394e-01 8.342242e-03
</event>
<event>
4 7 1.0 5000.0 7.905138e-03 7.739137e-02
21 -1 0 0 103 101  0.000000e+00  0.000000e+00  1.785643e+03  1.785643e+03 0.0 0.0 9.0
 2 -1 0 0 101   0  0.000000e+00  0.000000e+00 -3.425942e+03  3.425942e+03 0.0 0.0 9.0
22  1 1 2   0   0 -1.753008e+03  1.405973e+03  2.684806e+02  2.263156e+03 0.0 0.0 9.0
 2  1 1 2 103   0  1.753008e+03 -1.405973e+03 -1.908779e+03  2.948429e+03 0.0022 0.0 9.0
#pdf 21 2 2.747144e-01 5.270680e-01 5000.0 4.911579e-02 1.928935e-03
</event>
<event>
4 7 1.0 5000.0 7.905138e-03 7.739137e-02
 2 -1 0 0 101   0  0.000000e+00  0.000000e+00  1.860921e+03  1.860921e+03 0.0 0.0 9.0
21 -1 0 0 103 101  0.000000e+00  0.000000e+00 -3.363635e+03  3.363635e+03 0.0 0.0 9.0
22  1 1 2   0   0  2.278530e+03 -9.968189e+02 -1.035600e+03  2.694033e+03 0.0 0.0 9.0
 2  1 1 2 103   0 -2.278530e+03  9.968189e+02 -4.671142e+02  2.530523e+03 0.0022 0.0 9.0
#pdf 2 21 2.862955e-01 5.174823e-01 5000.0 2.662702e-01 6.120394e-02
</event>
<event>
4 7 1.0 5000.0 7.905138e-03 7.739137e-02
21 -1 0 0 103 101  0.000000e+00  0.000000e+00  2.076995e+03  2.076995e+03 0.0 0.0 9.0
 2 -1 0 0 101   0  0.000000e+00  0.000000e+00 -3.046097e+03  3.046097e+03 0.0 0.0 9.0
22  1 1 2   0   0 -1.368090e+03 -1.047319e+03  1.381676e+03  2.208524e+03 0.0 0.0 9.0
 2  1 1 2 103   0  1.368090e+03  1.047319e+03 -2.350779e+03  2.914568e+03 0.0022 0.0 9.0
#pdf 21 2 3.195376e-01 4.686303e-01 5000.0 2.835309e-02 4.312725e-03
</event>
<event>
4 7 1.0 5000.0 7.905138e-03 7.739137e-02
 2 -1 0 0 101   0  0.000000e+00  0.000000e+00  3.153589e+03  3.153589e+03 0.0 0.0 9.0
21 -1 0 0 103 101  0.000000e+00  0.000000e+00 -1.831510e+03  1.831510e+03 0.0 0.0 9.0
 2  1 1 2 103   0  1.514804e+03  6.784590e+02 -1.141580e+03  2.014483e+03 0.0022 0.0 9.0
22  1 1 2   0   0 -1.514804e+03 -6.784590e+02  2.463659e+03  2.970615e+03 0.0 0.0 9.0
#pdf 2 21 4.851675e-01 2.817707e-01 5000.0 7.904201e-02 2.720149e-01
</event>
<event>
4 7 1.0 5000.0 7.905138e-03 7.739137e-02
21 -1 0 0 103 101  0.000000e+00  0.000000e+00  3.455305e+03  3.455305e+03 0.0 0.0 9.0
 2 -1 0 0 101   0  0.000000e+00  0.000000e+00 -1.774648e+03  1.774648e+03 0.0 0.0 9.0
 2  1 1 2 103   0 -2.488214e+02  1.283439e+03 -1.380516e+03  1.901303e+03 0.0022 0.0 9.0
22  1 1 2   0   0  2.488214e+02 -1.283439e+03  3.061174e+03  3.328650e+03 0.0 0.0 9.0
#pdf 21 2 5.315854e-01 2.730227e-01 5000.0 1.808478e-03 5.014713e-02
</event>
<event>
4 7 1.0 5000.0 7.905138e-03 7.739137e-02
21 -1 0 0 103 101  0.000000e+00  0.000000e+00  2.821890e+03  2.821890e+03 0.0 0.0 9.0
 2 -1 0 0 101   0  0.000000e+00  0.000000e+00 -2.208912e+03  2.208912e+03 0.0 0.0 9.0
 2  1 1 2 103   0 -1.009806e+03  3.337724e+02 -1.969271e+03  2.238111e+03 0.0022 0.0 9.0
22  1 1 2   0   0  1.009806e+03 -3.337724e+02  2.582249e+03  2.792691e+03 0.0 0.0 9.0
#pdf 21 2 4.341369e-01 3.398327e-01 5000.0 6.782984e-03 2.210816e-02
</event>
<event>
4 7 1.0 5000.0 7.905138e-03 7.739137e-02
 2 -1 0 0 101   0  0.000000e+00  0.000000e+00  3.254154e+03  3.254154e+03 0.0 0.0 9.0
21 -1 0 0 103 101  0.000000e+00  0.000000e+00 -1.895277e+03  1.895277e+03 0.0 0.0 9.0
22  1 1 2   0   0 -1.278866e+03  7.900953e+02 -1.370018e+03  2.033887e+03 0.0 0.0 9.0
 2  1 1 2 103   0  1.278866e+03 -7.900953e+02  2.728895e+03  3.115544e+03 0.0022 0.0 9.0
#pdf 2 21 5.006391e-01 2.915811e-01 5000.0 7.009998e-02 2.596147e-01
</event>
<event>
4 7 1.0 5000.0 7.905138e-03 7.739137e-02
21 -1 0 0 103 101  0.000000e+00  0.000000e+00  2.317871e+03  2.317871e+03 0.0 0.0 9.0
 2 -1 0 0 101   0  0.000000e+00  0.000000e+00 -2.651079e+03  2.651079e+03 0.0 0.0 9.0
22  1 1 2   0   0  1.930979e+03 -7.013275e+02  1.223723e+03  2.391242e+03 0.0 0.0 9.0
 2  1 1 2 103   0 -1.930979e+03  7.013275e+02 -1.556932e+03  2.577708e+03 0.0022 0.0 9.0
#pdf 21 2 3.565955e-01 4.078583e-01 5000.0 1.798499e-02 9.489151e-03
</event>
<event>
4 7 1.0 5000.0 7.905138e-03 7.739137e-02
21 -1 0 0 103 101  0.000000e+00  0.000000e+00  2.935727e+03  2.935727e+03 0.0 0.0 9.0
 2 -1 0 0 101   0  0.000000e+00  0.000000e+00 -2.211601e+03  2.211601e+03 0.0 0.0 9.0
22  1 1 2   0   0  5.430901e+02  2.289661e+03  1.349203e+03  2.712535e+03 0.0 0.0 9.0
 2  1 1 2 103   0 -5.430901e+02 -2.289661e+03 -6.250778e+02  2.434793e+03 0.0022 0.0 9.0
#pdf 21 2 4.516503e-01 3.402463e-01 5000.0 5.400662e-03 2.199644e-02
</event>
<event>
4 7 1.0 5000.0 7.905138e-03 7.739137e-02
21 -1 0 0 103 101  0.000000e+00  0.000000e+00  3.850409e+03  3.850409e+03 0.0 0.0 9.0
 2 -1 0 0 101   0  0.000000e+00  0.000000e+00 -1.603581e+03  1.603581e+03 0.0 0.0 9.0
 2  1 1 2 103   0 -8.397605e+02  2.115646e+03  2.217175e+03  3.177581e+03 0.0022 0.0 9.0
22  1 1 2   0   0  8.397605e+02 -2.115646e+03  2.965285e+01  2.276408e+03 0.0 0.0 9.0
#pdf 21 2 5.923706e-01 2.467047e-01 5000.0 7.243674e-04 6.947217e-02
</event>
<event>
4 7 1.0 5000.0 7.905138e-03 7.739137e-02
21 -1 0 0 103 101  0.000000e+00  0.000000e+00  2.877392e+03  2.877392e+03 0.0 0.0 9.0
 2 -1 0 0 101   0  0.000000e+00  0.000000e+00 -2.131587e+03  2.131587e+03 0.0 0.0 9.0
22  1 1 2   0   0  1.643784e+03 -1.390188e+03 -8.651366e+02  2.320153e+03 0.0 0.0 9.0
 2  1 1 2 103   0 -1.643784e+03  1.390188e+03  1.610942e+03  2.688826e+03 0.0022 0.0 9.0
#pdf 21 2 4.426757e-01 3.279364e-01 5000.0 6.073668e-03 2.558426e-02
</event>
<event>
4 7 1.0 5000.0 7.905138e-03 7.739137e-02
 2 -1 0 0 101   0  0.000000e+00  0.000000e+00  1.913683e+03  1.913683e+03 0.0 0.0 9.0
21 -1 0 0 103 101  0.000000e+00  0.000000e+00 -3.456512e+03  3.456512e+03 0.0 0.0 9.0
22  1 1 2   0   0  4.018399e+02 -7.771721e+02  1.753543e+03  1.959690e+03 0.0 0.0 9.0
 2  1 1 2 103   0 -4.018399e+02  7.771721e+02 -3.296373e+03  3.410505e+03 0.0022 0.0 9.0
#pdf 2 21 2.944128e-01 5.317712e-01 5000.0 2.560830e-01 5.431901e-02
</event>
<event>
4 7 1.0 5000.0 7.905138e-03 7.739137e-02
 2 -1 0 0 101   0  0.000000e+00  0.000000e+00  2.651540e+03  2.651540e+03 0.0 0.0 9.0
21 -1 0 0 103 101  0.000000e+00  0.000000e+00 -2.345120e+03  2.345120e+03 0.0 0.0 9.0
 2  1 1 2 103   0  7.784056e+02 -2.469260e+02  2.513771e+03  2.643092e+03 0.0022 0.0 9.0
22  1 1 2   0   0 -7.784056e+02  2.469260e+02 -2.207350e+03  2.353568e+03 0.0 0.0 9.0
#pdf 2 21 4.079293e-01 3.607876e-01 5000.0 1.355916e-01 1.803346e-01
</event>
<event>
4 7 1.0 5000.0 7.905138e-03 7.739137e-02
 2 -1 0 0 101   0  0.000000e+00  0.000000e+00  3.177644e+03  3.177644e+03 0.0 0.0 9.0
21 -1 0 0 103 101  0.000000e+00  0.000000e+00 -1.987459e+03  1.987459e+03 0.0 0.0 9.0
22  1 1 2   0   0  2.091371e+03  8.915764e+02 -5.053597e+02  2.328976e+03 0.0 0.0 9.0
 2  1 1 2 103   0 -2.091371e+03 -8.915764e+02  1.695545e+03  2.836127e+03 0.0022 0.0 9.0
#pdf 2 21 4.888683e-01 3.057629e-01 5000.0 7.683432e-02 2.421666e-01
</event>
<event>
4 7 1.0 5000.0 7.905138e-03 7.739137e-02
 2 -1 0 0 101   0  0.000000e+00  0.000000e+00  4.389502e+03  4.389502e+03 0.0 0.0 9.0
21 -1 0 0 103 101  0.000000e+00  0.000000e+00 -1.427168e+03  1.427168e+03 0.0 0.0 9.0
 2  1 1 2 103   0 -1.391875e+03 -2.077204e+03  1.351447e+03  2.842271e+03 0.0022 0.0 9.0
22  1 1 2   0   0  1.391875e+03  2.077204e+03  1.610887e+03  2.974399e+03 0.0 0.0 9.0
#pdf 2 21 6.753080e-01 2.195643e-01 5000.0 1.236428e-02 3.550095e-01
</event>
<event>
4 7 1.0 5000.0 7.905138e-03 7.739137e-02
21 -1 0 0 103 101  0.000000e+00  0.000000e+00  1.569597e+03  1.569597e+03 0.0 0.0 9.0
 2 -1 0 0 101   0  0.000000e+00  0.000000e+00 -3.987043e+03  3.987043e+03 0.0 0.0 9.0
 2  1 1 2 103   0 -1.136748e+03 -5.801115e+01  1.265350e+03  1.701962e+03 0.0022 0.0 9.0
22  1 1 2   0   0  1.136748e+03  5.801115e+01 -3.682796e+03  3.854679e+03 0.0 0.0 9.0
#pdf 21 2 2.414765e-01 6.133912e-01 5000.0 7.422627e-02 5.166853e-04
</event>
<event>
4 7 1.0 5000.0 7.905138e-03 7.739137e-02
 2 -1 0 0 101   0  0.000000e+00  0.000000e+00  2.519630e+03  2.519630e+03 0.0 0.0 9.0
21 -1 0 0 103 101  0.000000e+00  0.000000e+00 -2.563281e+03  2.563281e+03 0.0 0.0 9.0
 2  1 1 2 103   0 -1.160195e+03  2.247661e+03  2.241307e+02  2.539343e+03 0.0022 0.0 9.0
22  1 1 2   0   0  1.160195e+03 -2.247661e+03 -2.677808e+02  2.543568e+03 0.0 0.0 9.0
#pdf 2 21 3.876355e-01 3.943509e-01 5000.0 1.539020e-01 1.476883e-01
</event>
<event>
4 7 1.0 5000.0 7.905138e-03 7.739137e-02
 2 -1 0 0 101   0  0.000000e+00  0.000000e+00  3.728911e+03  3.728911e+03 0.0 0.0 9.0
21 -1 0 0 103 101  0.000000e+00  0.000000e+00 -1.778510e+03  1.778510e+03 0.0 0.0 9.0
 2  1 1 2 103   0 -1.138818e+03  1.172573e+03 -1.152697e+03  2.000136e+03 0.0022 0.0 9.0
22  1 1 2   0   0  1.138818e+03 -1.172573e+03  3.103097e+03  3.507285e+03 0.0 0.0 9.0
#pdf 2 21 5.736786e-01 2.736170e-01 5000.0 3.731258e-02 2.824877e-01
</event>
<event>
4 7 1.0 5000.0 7.905138e-03 7.739137e-02
 2 -1 0 0 101   0  0.000000e+00  0.000000e+00  5.204447e+03  5.204447e+03 0.0 0.0 9.0
21 -1 0 0 103 101  0.000000e+00  0.000000e+00 -1.128554e+03  1.128554e+03 0.0 0.0 9.0
 2  1 1 2 103   0 -1.127351e+03  1.901059e+03  3.337011e+03  4.002573e+03 0.0022 0.0 9.0
22  1 1 2   0   0  1.127351e+03 -1.901059e+03  7.388826e+02  2.330428e+03 0.0 0.0 9.0
#pdf 2 21 8.006841e-01 1.736236e-01 5000.0 1.678907e-03 4.182005e-01
</event>
<event>
4 7 1.0 5000.0 7.905138e-03 7.739137e-02
21 -1 0 0 103 101  0.000000e+00  0.000000e+00  2.815857e+03  2.815857e+03 0.0 0.0 9.0
 2 -1 0 0 101   0  0.000000e+00  0.000000e+00 -2.254990e+03  2.254990e+03 0.0 0.0 9.0
22  1 1 2   0   0  1.253716e+03  2.020229e+03  1.120211e+03  2.628308e+03 0.0 0.0 9.0
 2  1 1 2 103   0 -1.253716e+03 -2.020229e+03 -5.593435e+02  2.442539e+03 0.0022 0.0 9.0
#pdf 21 2 4.332088e-01 3.469215e-01 5000.0 6.863817e-03 2.027200e-02
</event>
<event>
4 7 1.0 5000.0 7.905138e-03 7.739137e-02
21 -1 0 0 103 101  0.000000e+00  0.000000e+00  1.969859e+03  1.969859e+03 0.0 0.0 9.0
 2 -1 0 0 101   0  0.000000e+00  0.000000e+00 -3.140749e+03  3.140749e+03 0.0 0.0 9.0
 2  1 1 2 103   0 -9.753414e+02  3.443282e+02 -2.909333e+03  3.087729e+03 0.0022 0.0 9.0
22  1 1 2   0   0  9.753414e+02 -3.443282e+02  1.738443e+03  2.022879e+03 0.0 0.0 9.0
#pdf 21 2 3.030552e-01 4.831921e-01 5000.0 3.471764e-02 3.545367e-03
</event>
<event>
4 7 1.0 5000.0 7.905138e-03 7.739137e-02
21 -1 0 0 103 101  0.000000e+00  0.000000e+00  1.970426e+03  1.970426e+03 0.0 0.0 9.0
 2 -1 0 0 101   0  0.000000e+00  0.000000e+00 -2.896712e+03  2.896712e+03 0.0 0.0 9.0
22  1 1 2   0   0 -1.287050e+03  2.422764e+02 -2.498481e+03  2.820923e+03 0.0 0.0 9.0
 2  1 1 2 103   0  1.287050e+03 -2.422764e+02  1.572195e+03  2.046215e+03 0.0022 0.0 9.0
#pdf 21 2 3.031424e-01 4.456479e-01 5000.0 3.468132e-02 5.836704e-03
</event>
<event>
4 7 1.0 5000.0 7.905138e-03 7.739137e-02
21 -1 0 0 103 101  0.000000e+00  0.000000e+00  3.197889e+03  3.197889e+03 0.0 0.0 9.0
 2 -1 0 0 101   0  0.000000e+00  0.000000e+00 -1.944388e+03  1.944388e+03 0.0 0.0 9.0
 2  1 1 2 103   0 -1.978111e+02 -2.094624e+03 -7.532944e+02  2.234733e+03 0.0022 0.0 9.0
22  1 1 2   0   0  1.978111e+02  2.094624e+03  2.006796e+03  2.907544e+03 0.0 0.0 9.0
#pdf 21 2 4.919829e-01 2.991366e-01 5000.0 3.146388e-03 3.640729e-02
</event>
<event>
4 7 1.0 5000.0 7.905138e-03 7.739137e-02
 2 -1 0 0 101   0  0.000000e+00  0.000000e+00  2.209024e+03  2.209024e+03 0.0 0.0 9.0
21 -1 0 0 103 101  0.000000e+00  0.000000e+00 -2.907269e+03  2.907269e+03 0.0 0.0 9.0
22  1 1 2   0   0 -4.590023e+02  1.752003e+03  1.440196e+03  2.313950e+03 0.0 0.0 9.0
 2  1 1 2 103   0  4.590023e+02 -1.752003e+03 -2.138441e+03  2.802343e+03 0.0022 0.0 9.0
#pdf 2 21 3.398498e-01 4.472721e-01 5000.0 2.026997e-01 1.042256e-01
</event>
<event>
4 7 1.0 5000.0 7.905138e-03 7.739137e-02
 2 -1 0 0 101   0  0.000000e+00  0.000000e+00  3.009920e+03  3.009920e+03 0.0 0.0 9.0
21 -1 0 0 103 101  0.000000e+00  0.000000e+00 -2.131013e+03  2.131013e+03 0.0 0.0 9.0
22  1 1 2   0   0  1.057529e+03 -1.264973e+03  2.390587e+03  2.904037e+03 0.0 0.0 9.0
 2  1 1 2 103   0 -1.057529e+03  1.264973e+03 -1.511680e+03  2.236896e+03 0.0022 0.0 9.0
#pdf 2 21 4.630646e-01 3.278482e-01 5000.0 9.315063e-02 2.161775e-01
</event>
<event>
4 7 1.0 5000.0 7.905138e-03 7.739137e-02
21 -1 0 0 103 101  0.000000e+00  0.000000e+00  2.873988e+03  2.873988e+03 0.0 0.0 9.0
 2 -1 0 0 101   0  0.000000e+00  0.000000e+00 -2.147718e+03  2.147718e+03 0.0 0.0 9.0
22  1 1 2   0   0 -8.891904e+02  2.134880e+03  1.280604e+03  2.643543e+03 0.0 0.0 9.0
 2  1 1 2 103   0  8.891904e+02 -2.134880e+03 -5.543342e+02  2.378163e+03 0.0022 0.0 9.0
#pdf 21 2 4.421520e-01 3.304182e-01 5000.0 6.115836e-03 2.481882e-02
</event>
<event>
4 7 1.0 5000.0 7.905138e-03 7.739137e-02
21 -1 0 0 103 101  0.000000e+00  0.000000e+00  2.109436e+03  2.109436e+03 0.0 0.0 9.0
 2 -1 0 0 101   0  0.000000e+00  0.000000e+00 -2.781975e+03  2.781975e+03 0.0 0.0 9.0
 2  1 1 2 103   0 -2.339439e+03 -1.383168e+01 -9.709740e+02  2.532974e+03 0.0022 0.0 9.0
22  1 1 2   0   0  2.339439e+03  1.383168e+01  2.984355e+02  2.358438e+03 0.0 0.0 9.0
#pdf 21 2 3.245287e-01 4.279961e-01 5000.0 2.667293e-02 7.337314e-03
</event>
<event>
4 7 1.0 5000.0 7.905138e-03 7.739137e-02
 2 -1 0 0 101   0  0.000000e+00  0.000000e+00  2.507336e+03  2.507336e+03 0.0 0.0 9.0
21 -1 0 0 103 101  0.000000e+00  0.000000e+00 -2.512598e+03  2.512598e+03 0.0 0.0 9.0
22  1 1 2   0   0 -7.116588e+01 -1.252364e+03  2.171410e+03  2.507688e+03 0.0 0.0 9.0
 2  1 1 2 103   0  7.116588e+01  1.252364e+03 -2.176671e+03  2.512245e+03 0.0022 0.0 9.0
#pdf 2 21 3.857441e-01 3.865535e-01 5000.0 1.556812e-01 1.549182e-01
</event>
<event>
4 7 1.0 5000.0 7.905138e-03 7.739137e-02
 2 -1 0 0 101   0  0.000000e+00  0.000000e+00  5.274975e+03  5.274975e+03 0.0 0.0 9.0
21 -1 0 0 103 101  0.000000e+00  0.000000e+00 -8.565686e+02  8.565686e+02 0.0 0.0 9.0
 2  1 1 2 103   0 -1.265688e+03  1.075920e+03  4.121951e+03  4.444103e+03 0.0022 0.0 9.0
22  1 1 2   0   0  1.265688e+03 -1.075920e+03  2.964547e+02  1.687440e+03 0.0 0.0 9.0
#pdf 2 21 8.115345e-01 1.317798e-01 5000.0 1.331496e-03 4.732699e-01
</event>
<event>
4 7 1.0 5000.0 7.905138e-03 7.739137e-02
 2 -1 0 0 101   0  0.000000e+00  0.000000e+00  3.470071e+03  3.470071e+03 0.0 0.0 9.0
21 -1 0 0 103 101  0.000000e+00  0.000000e+00 -1.871470e+03  1.871470e+03 0.0 0.0 9.0
22  1 1 2   0   0  4.231580e+02 -1.687406e+03  2.750937e+03  3.254851e+03 0.0 0.0 9.0
 2  1 1 2 103   0 -4.231580e+02  1.687406e+03 -1.152336e+03  2.086691e+03 0.0022 0.0 9.0
#pdf 2 21 5.338571e-01 2.879185e-01 5000.0 5.335909e-02 2.642191e-01
</event>
<event>
4 7 1.0 5000.0 7.905138e-03 7.739137e-02
21 -1 0 0 103 101  0.000000e+00  0.000000e+00  1.983793e+03  1.983793e+03 0.0 0.0 9.0
 2 -1 0 0 101   0  0.000000e+00  0.000000e+00 -3.067588e+03  3.067588e+03 0.0 0.0 9.0
 2  1 1 2 103   0  1.526473e+02 -2.201962e+03  5.859672e+02  2.283702e+03 0.0022 0.0 9.0
22  1 1 2   0   0 -1.526473e+02  2.201962e+03 -1.669763e+03  2.767679e+03 0.0 0.0 9.0
#pdf 21 2 3.051989e-01 4.719367e-01 5000.0 3.383030e-02 4.126715e-03
</event>
<event>
4 7 1.0 5000.0 7.905138e-03 7.739137e-02
 2 -1 0 0 101   0  0.000000e+00  0.000000e+00  2.792557e+03  2.792557e+03 0.0 0.0 9.0
21 -1 0 0 103 101  0.000000e+00  0.000000e+00 -2.235009e+03  2.235009e+03 0.0 0.0 9.0
 2  1 1 2 103   0  9.962528e+02  2.014261e+03 -8.196170e+02  2.391974e+03 0.0022 0.0 9.0
22  1 1 2   0   0 -9.962528e+02 -2.014261e+03  1.377165e+03  2.635593e+03 0.0 0.0 9.0
#pdf 2 21 4.296242e-01 3.438476e-01 5000.0 1.176286e-01 1.983144e-01
</event>
<event>
4 7 1.0 5000.0 7.905138e-03 7.739137e-02
21 -1 0 0 103 101  0.000000e+00  0.000000e+00  2.131075e+03  2.131075e+03 0.0 0.0 9.0
 2 -1 0 0 101   0  0.000000e+00  0.000000e+00 -2.958752e+03  2.958752e+03 0.0 0.0 9.0
22  1 1 2   0   0  1.688500e+03 -4.777858e+02  1.406500e+03  2.248901e+03 0.0 0.0 9.0
 2  1 1 2 103   0 -1.688500e+03  4.777858e+02 -2.234178e+03  2.840926e+03 0.0022 0.0 9.0
#pdf 21 2 3.278577e-01 4.551927e-01 5000.0 2.560891e-02 5.154992e-03
</event>
<event>
4 7 1.0 5000.0 7.905138e-03 7.739137e-02
 2 -1 0 0 101   0  0.000000e+00  0.000000e+00  1.527562e+03  1.527562e+03 0.0 0.0 9.0
21 -1 0 0 103 101  0.000000e+00  0.000000e+00 -4.228195e+03  4.228195e+03 0.0 0.0 9.0
22  1 1 2   0   0  1.616804e+03  1.847358e+03 -6.059994e+02  2.528640e+03 0.0 0.0 9.0
 2  1 1 2 103   0 -1.616804e+03 -1.847358e+03 -2.094634e+03  3.227116e+03 0.0022 0.0 9.0
#pdf 2 21 2.350095e-01 6.504915e-01 5000.0 3.338643e-01 1.669823e-02
</event>
<event>
4 7 1.0 5000.0 7.905138e-03 7.739137e-02
21 -1 0 0 103 101  0.000000e+00  0.000000e+00  2.992823e+03  2.992823e+03 0.0 0.0 9.0
 2 -1 0 0 101   0  0.000000e+00  0.000000e+00 -2.082056e+03  2.082056e+03 0.0 0.0 9.0
22  1 1 2   0   0  4.169892e+02  1.375362e+03  2.530078e+03  2.909776e+03 0.0 0.0 9.0
 2  1 1 2 103   0 -4.169892e+02 -1.375362e+03 -1.619312e+03  2.165103e+03 0.0022 0.0 9.0
#pdf 21 2 4.604342e-01 3.203163e-01 5000.0 4.807622e-03 2.808385e-02
</event>
<event>
4 7 1.0 5000.0 7.905138e-03 7.739137e-02
21 -1 0 0 103 101  0.000000e+00  0.000000e+00  3.648102e+03  3.648102e+03 0.0 0.0 9.0
 2 -1 0 0 101   0  0.000000e+00  0.000000e+00 -1.480223e+03  1.480223e+03 0.0 0.0 9.0
22  1 1 2   0   0  1.274972e+03 -1.530242e+03  2.404757e+03  3.122507e+03 0.0 0.0 9.0
 2  1 1 2 103   0 -1.274972e+03  1.530242e+03 -2.368783e+02  2.005818e+03 0.0022 0.0 9.0
#pdf 21 2 5.612465e-01 2.277266e-01 5000.0 1.171249e-03 8.813063e-02
</event>
<event>
4 7 1.0 5000.0 7.905138e-03 7.739137e-02
21 -1 0 0 103 101  0.000000e+00  0.000000e+00  3.268305e+03  3.268305e+03 0.0 0.0 9.0
 2 -1 0 0 101   0  0.000000e+00  0.000000e+00 -1.867585e+03  1.867585e+03 0.0 0.0 9.0
22  1 1 2   0   0 -9.886555e+02  8.427448e+02  2.884636e+03  3.163666e+03 0.0 0.0 9.0
 2  1 1 2 103   0  9.886555e+02 -8.427448e+02 -1.483916e+03  1.972223e+03 0.0022 0.0 9.0
#pdf 21 2 5.028161e-01 2.873207e-01 5000.0 2.710504e-03 4.208197e-02
</event>
<event>
4 7 1.0 5000.0 7.905138e-03 7.739137e-02
 2 -1 0 0 101   0  0.000000e+00  0.000000e+00  2.031435e+03  2.031435e+03 0.0 0.0 9.0
21 -1 0 0 103 101  0.000000e+00  0.000000e+00 -3.032267e+03  3.032267e+03 0.0 0.0 9.0
22  1 1 2   0   0  1.945793e+03  4.354281e+02 -2.008043e+03  2.829831e+03 0.0 0.0 9.0
 2  1 1 2 103   0 -1.945793e+03 -4.354281e+02  1.007211e+03  2.233871e+03 0.0022 0.0 9.0
#pdf 2 21 3.125285e-01 4.665026e-01 5000.0 2.340472e-01 9.085497e-02
</event>
<event>
4 7 1.0 5000.0 7.905138e-03 7.739137e-02
21 -1 0 0 103 101  0.000000e+00  0.000000e+00  2.567303e+03  2.567303e+03 0.0 0.0 9.0
 2 -1 0 0 101   0  0.000000e+00  0.000000e+00 -2.464002e+03  2.464002e+03 0.0 0.0 9.0
 2  1 1 2 103   0 -8.214899e+02  1.643072e+03  1.769950e+03  2.550932e+03 0.0022 0.0 9.0
22  1 1 2   0   0  8.214899e+02 -1.643072e+03 -1.666649e+03  2.480373e+03 0.0 0.0 9.0
#pdf 21 2 3.949697e-01 3.790772e-01 5000.0 1.116362e-02 1.363145e-02
</event>
<event>
4 7 1.0 5000.0 7.905138e-03 7.739137e-02
 2 -1 0 0 101   0  0.000000e+00  0.000000e+00  3.289364e+03  3.289364e+03 0.0 0.0 9.0
21 -1 0 0 103 101  0.000000e+00  0.000000e+00 -1.663605e+03  1.663605e+03 0.0 0.0 9.0
22  1 1 2   0   0  1.214612e+03  1.535732e+03 -5.422182e+02  2.031688e+03 0.0 0.0 9.0
 2  1 1 2 103   0 -1.214612e+03 -1.535732e+03  2.167977e+03  2.921281e+03 0.0022 0.0 9.0
#pdf 2 21 5.060560e-01 2.559393e-01 5000.0 6.714567e-02 3.056719e-01
</event>
<event>
4 7 1.0 5000.0 7.905138e-03 7.739137e-02
21 -1 0 0 103 101  0.000000e+00  0.000000e+00  1.613251e+03  1.613251e+03 0.0 0.0 9.0
 2 -1 0 0 101   0  0.000000e+00  0.000000e+00 -3.899330e+03  3.899330e+03 0.0 0.0 9.0
 2  1 1 2 103   0 -2.881527e+02  1.150716e+03 -3.571555e+03  3.763401e+03 0.0022 0.0 9.0
22  1 1 2   0   0  2.881527e+02 -1.150716e+03  1.285476e+03  1.749180e+03 0.0 0.0 9.0
#pdf 21 2 2.481924e-01 5.998969e-01 5000.0 6.823011e-02 6.429257e-04
</event>
<event>
4 7 1.0 5000.0 7.905138e-03 7.739137e-02
 2 -1 0 0 101   0  0.000000e+00  0.000000e+00  1.736832e+03  1.736832e+03 0.0 0.0 9.0
21 -1 0 0 103 101  0.000000e+00  0.000000e+00 -2.830759e+03  2.830759e+03 0.0 0.0 9.0
22  1 1 2   0   0  7.460412e+02 -6.825271e+02  1.485544e+03  1.797015e+03 0.0 0.0 9.0
 2  1 1 2 103   0 -7.460412e+02  6.825271e+02 -2.579471e+03  2.770576e+03 0.0022 0.0 9.0
#pdf 2 21 2.672049e-01 4.355013e-01 5000.0 2.908381e-01 1.130588e-01
</event>
<event>
4 7 1.0 5000.0 7.905138e-03 7.739137e-02
21 -1 0 0 103 101  0.000000e+00  0.000000e+00  3.018736e+03  3.018736e+03 0.0 0.0 9.0
 2 -1 0 0 101   0  0.000000e+00  0.000000e+00 -2.034984e+03  2.034984e+03 0.0 0.0 9.0
 2  1 1 2 103   0  1.458629e+03 -1.209970e+03  2.120354e+03  2.843858e+03 0.0022 0.0 9.0
22  1 1 2   0   0 -1.458629e+03  1.209970e+03 -1.136602e+03  2.209862e+03 0.0 0.0 9.0
#pdf 21 2 4.644209e-01 3.130744e-01 5000.0 4.560278e-03 3.070485e-02
</event>
<event>
4 7 1.0 5000.0 7.905138e-03 7.739137e-02
 2 -1 0 0 101   0  0.000000e+00  0.000000e+00  2.489996e+03  2.489996e+03 0.0 0.0 9.0
21 -1 0 0 103 101  0.000000e+00  0.000000e+00 -2.528513e+03  2.528513e+03 0.0 0.0 9.0
 2  1 1 2 103   0 -4.666540e+02  2.178636e+03  1.134797e+03  2.500397e+03 0.0022 0.0 9.0
22  1 1 2   0   0  4.666540e+02 -2.178636e+03 -1.173315e+03  2.518112e+03 0.0 0.0 9.0
#pdf 2 21 3.830763e-01 3.890020e-01 5000.0 1.582125e-01 1.526247e-01
</event>
<event>
4 7 1.0 5000.0 7.905138e-03 7.739137e-02
 2 -1 0 0 101   0  0.000000e+00  0.000000e+00  3.736572e+03  3.736572e+03 0.0 0.0 9.0
21 -1 0 0 103 101  0.000000e+00  0.000000e+00 -1.641501e+03  1.641501e+03 0.0 0.0 9.0
22  1 1 2   0   0  1.494434e+03 -1.934555e+03  1.478777e+03  2.857030e+03 0.0 0.0 9.0
 2  1 1 2 103   0 -1.494434e+03  1.934555e+03  6.162944e+02  2.521043e+03 0.0022 0.0 9.0
#pdf 2 21 5.748573e-01 2.525386e-01 5000.0 3.689929e-02 3.101978e-01
</event>
<event>
4 7 1.0 5000.0 7.905138e-03 7.739137e-02
21 -1 0 0 103 101  0.000000e+00  0.000000e+00  2.173023e+03  2.173023e+03 0.0 0.0 9.0
 2 -1 0 0 101   0  0.000000e+00  0.000000e+00 -2.127918e+03  2.127918e+03 0.0 0.0 9.0
22  1 1 2   0   0 -1.596154e+03 -5.449528e+02 -1.311437e+03  2.136480e+03 0.0 0.0 9.0
 2  1 1 2 103   0  1.596154e+03  5.449528e+02  1.356543e+03  2.164460e+03 0.0022 0.0 9.0
#pdf 21 2 3.343112e-01 3.273720e-01 5000.0 2.366114e-02 2.576151e-02
</event>
<event>
4 7 1.0 5000.0 7.905138e-03 7.739137e-02
21 -1 0 0 103 101  0.000000e+00  0.000000e+00  2.304694e+03  2.304694e+03 0.0 0.0 9.0
 2 -1 0 0 101   0  0.000000e+00  0.000000e+00 -2.717211e+03  2.717211e+03 0.0 0.0 9.0
22  1 1 2   0   0  1.720576e+03  1.134581e+03  1.217950e+03  2.393963e+03 0.0 0.0 9.0
 2  1 1 2 103   0 -1.720576e+03 -1.134581e+03 -1.630467e+03  2.627942e+03 0.0022 0.0 9.0
#pdf 21 2 3.545682e-01 4.180325e-01 5000.0 1.844341e-02 8.336728e-03
</event>
<event>
4 7 1.0 5000.0 7.905138e-03 7.739137e-02
21 -1 0 0 103 101  0.000000e+00  0.000000e+00  1.777716e+03  1.777716e+03 0.0 0.0 9.0
 2 -1 0 0 101   0  0.000000e+00  0.000000e+00 -3.503788e+03  3.503788e+03 0.0 0.0 9.0
 2  1 1 2 103   0  7.934606e+02 -1.735747e+03 -2.564686e+03  3.196876e+03 0.0022 0.0 9.0
22  1 1 2   0   0 -7.934606e+02  1.735747e+03  8.386140e+02  2.084628e+03 0.0 0.0 9.0
#pdf 21 2 2.734947e-01 5.390443e-01 5000.0 4.985722e-02 1.622084e-03
</event>
<event>
4 7 1.0 5000.0 7.905138e-03 7.739137e-02
21 -1 0 0 103 101  0.000000e+00  0.000000e+00  5.132677e+03  5.132677e+03 0.0 0.0 9.0
 2 -1 0 0 101   0  0.000000e+00  0.000000e+00 -1.223147e+03  1.223147e+03 0.0 0.0 9.0
 2  1 1 2 103   0 -1.037989e+03  2.121853e+03  8.948702e+02  2.525960e+03 0.0022 0.0 9.0
22  1 1 2   0   0  1.037989e+03 -2.121853e+03  3.014660e+03  3.829864e+03 0.0 0.0 9.0
#pdf 21 2 7.896426e-01 1.881765e-01 5000.0 1.361562e-05 1.470557e-01
</event>
<event>
4 7 1.0 5000.0 7.905138e-03 7.739137e-02
 2 -1 0 0 101   0  0.000000e+00  0.000000e+00  2.609056e+03  2.609056e+03 0.0 0.0 9.0
21 -1 0 0 103 101  0.000000e+00  0.000000e+00 -2.391930e+03  2.391930e+03 0.0 0.0 9.0
 2  1 1 2 103   0 -2.006336e+03  1.083833e+03  1.129624e+03  2.544824e+03 0.0022 0.0 9.0
22  1 1 2   0   0  2.006336e+03 -1.083833e+03 -9.124981e+02  2.456162e+03 0.0 0.0 9.0
#pdf 2 21 4.013933e-01 3.679892e-01 5000.0 1.413323e-01 1.729872e-01
</event>
<event>
4 7 1.0 5000.0 7.905138e-03 7.739137e-02
21 -1 0 0 103 101  0.000000e+00  0.000000e+00  3.212027e+03  3.212027e+03 0.0 0.0 9.0
 2 -1 0 0 101   0  0.000000e+00  0.000000e+00 -1.924207e+03  1.924207e+03 0.0 0.0 9.0
 2  1 1 2 103   0  1.083360e+03 -1.763685e+02 -1.660353e+03  1.990364e+03 0.0022 0.0 9.0
22  1 1 2   0   0 -1.083360e+03  1.763685e+02  2.948173e+03  3.145870e+03 0.0 0.0 9.0
#pdf 21 2 4.941579e-01 2.960318e-01 5000.0 3.054376e-03 3.784854e-02
</event>
<event>
4 7 1.0 5000.0 7.905138e-03 7.739137e-02
 2 -1 0 0 101   0  0.000000e+00  0.000000e+00  2.102424e+03  2.102424e+03 0.0 0.0 9.0
21 -1 0 0 103 101  0.000000e+00  0.000000e+00 -2.987349e+03  2.987349e+03 0.0 0.0 9.0
22  1 1 2   0   0  2.297321e+03 -5.983460e+02 -1.257985e+03  2.686676e+03 0.0 0.0 9.0
 2  1 1 2 103   0 -2.297321e+03  5.983460e+02  3.730598e+02  2.403097e+03 0.0022 0.0 9.0
#pdf 2 21 3.234498e-01 4.595922e-01 5000.0 2.212384e-01 9.551391e-02
</event>
<event>
4 7 1.0 5000.0 7.905138e-03 7.739137e-02
 2 -1 0 0 101   0  0.000000e+00  0.000000e+00  2.339673e+03  2.339673e+03 0.0 0.0 9.0
21 -1 0 0 103 101  0.000000e+00  0.000000e+00 -2.565040e+03  2.565040e+03 0.0 0.0 9.0
22  1 1 2   0   0  2.147818e+03 -8.394222e+02  7.149945e+02  2.414325e+03 0.0 0.0 9.0
 2  1 1 2 103   0 -2.147818e+03  8.394222e+02 -9.403620e+02  2.490388e+03 0.0022 0.0 9.0
#pdf 2 21 3.599496e-01 3.946216e-01 5000.0 1.812007e-01 1.474409e-01
</event>
<event>
4 7 1.0 5000.0 7.905138e-03 7.739137e-02
21 -1 0 0 103 101  0.000000e+00  0.000000e+00  3.383231e+03  3.383231e+03 0.0 0.0 9.0
 2 -1 0 0 101   0  0.000000e+00  0.000000e+00 -1.725243e+03  1.725243e+03 0.0 0.0 9.0
 2  1 1 2 103   0  7.848605e+02 -1.339219e+03  2.786267e+03  3.189482e+03 0.0022 0.0 9.0
22  1 1 2   0   0 -7.848605e+02  1.339219e+03 -1.128279e+03  1.918991e+03 0.0 0.0 9.0
#pdf 21 2 5.204971e-01 2.654220e-01 5000.0 2.116711e-03 5.506724e-02
</event>
<event>
4 7 1.0 5000.0 7.905138e-03 7.739137e-02
21 -1 0 0 103 101  0.000000e+00  0.000000e+00  1.903096e+03  1.903096e+03 0.0 0.0 9.0
 2 -1 0 0 101   0  0.000000e+00  0.000000e+00 -3.254466e+03  3.254466e+03 0.0 0.0 9.0
22  1 1 2   0   0  1.623834e+03 -3.889587e+02 -2.587873e+03  3.079807e+03 0.0 0.0 9.0
 2  1 1 2 103   0 -1.623834e+03  3.889587e+02  1.236503e+03  2.077755e+03 0.0022 0.0 9.0
#pdf 21 2 2.927840e-01 5.006871e-01 5000.0 3.938602e-02 2.791638e-03
</event>
<event>
4 7 1.0 5000.0 7.905138e-03 7.739137e-02
 2 -1 0 0 101   0  0.000000e+00  0.000000e+00  1.977214e+03  1.977214e+03 0.0 0.0 9.0
21 -1 0 0 103 101  0.000000e+00  0.000000e+00 -3.198685e+03  3.198685e+03 0.0 0.0 9.0
22  1 1 2   0   0  1.921940e+03  9.104904e+02 -1.992001e+03  2.913917e+03 0.0 0.0 9.0
 2  1 1 2 103   0 -1.921940e+03 -9.104904e+02  7.705297e+02  2.261982e+03 0.0022 0.0 9.0
#pdf 2 21 3.041868e-01 4.921054e-01 5000.0 2.440799e-01 7.493873e-02
</event>
<event>
4 7 1.0 5000.0 7.905138e-03 7.739137e-02
 2 -1 0 0 101   0  0.000000e+00  0.000000e+00  2.156143e+03  2.156143e+03 0.0 0.0 9.0
21 -1 0 0 103 101  0.000000e+00  0.000000e+00 -2.270260e+03  2.270260e+03 0.0 0.0 9.0
22  1 1 2   0   0  2.394432e+02 -2.029399e+03  7.912862e+02  2.191330e+03 0.0 0.0 9.0
 2  1 1 2 103   0 -2.394432e+02  2.029399e+03 -9.054038e+02  2.235073e+03 0.0022 0.0 9.0
#pdf 2 21 3.317143e-01 3.492708e-01 5000.0 2.117810e-01 1.924493e-01
</event>
<event>
4 7 1.0 5000.0 7.905138e-03 7.739137e-02
 2 -1 0 0 101   0  0.000000e+00  0.000000e+00  2.527478e+03  2.527478e+03 0.0 0.0 9.0
21 -1 0 0 103 101  0.000000e+00  0.000000e+00 -2.478078e+03  2.478078e+03 0.0 0.0 9.0
22  1 1 2   0   0 -2.777417e+02 -8.045041e+02  2.378306e+03  2.526006e+03 0.0 0.0 9.0
 2  1 1 2 103   0  2.777417e+02  8.045041e+02 -2.328906e+03  2.479550e+03 0.0022 0.0 9.0
#pdf 2 21 3.888428e-01 3.812428e-01 5000.0 1.527732e-01 1.599665e-01
</event>
<event>
4 7 1.0 5000.0 7.905138e-03 7.739137e-02
 2 -1 0 0 101   0  0.000000e+00  0.000000e+00  2.227287e+03  2.227287e+03 0.0 0.0 9.0
21 -1 0 0 103 101  0.000000e+00  0.000000e+00 -2.740253e+03  2.740253e+03 0.0 0.0 9.0
 2  1 1 2 103   0  8.341320e+02 -1.838153e+03  1.175513e+03  2.335897e+03 0.0022 0.0 9.0
22  1 1 2   0   0 -8.341320e+02  1.838153e+03 -1.688480e+03  2.631643e+03 0.0 0.0 9.0
#pdf 2 21 3.426595e-01 4.215774e-01 5000.0 1.996123e-01 1.240941e-01
</event>
<event>
4 7 1.0 5000.0 7.905138e-03 7.739137e-02
 2 -1 0 0 101   0  0.000000e+00  0.000000e+00  1.798956e+03  1.798956e+03 0.0 0.0 9.0
21 -1 0 0 103 101  0.000000e+00  0.000000e+00 -3.438917e+03  3.438917e+03 0.0 0.0 9.0
22  1 1 2   0   0 -1.445225e+03 -3.162731e+02 -2.925271e+03  3.278096e+03 0.0 0.0 9.0
 2  1 1 2 103   0  1.445225e+03  3.162731e+02  1.285310e+03  1.959777e+03 0.0022 0.0 9.0
#pdf 2 21 2.767625e-01 5.290642e-01 5000.0 2.784258e-01 5.558041e-02
</event>
<event>
4 7 1.0 5000.0 7.905138e-03 7.739137e-02
 2 -1 0 0 101   0  0.000000e+00  0.000000e+00  2.423771e+03  2.423771e+03 0.0 0.0 9.0
21 -1 0 0 103 101  0.000000e+00  0.000000e+00 -2.555901e+03  2.555901e+03 0.0 0.0 9.0
22  1 1 2   0   0  4.011378e+02 -1.498862e+03 -2.012880e+03  2.541493e+03 0.0 0.0 9.0
 2  1 1 2 103   0 -4.011378e+02  1.498862e+03  1.880750e+03  2.438179e+03 0.0022 0.0 9.0
#pdf 2 21 3.728878e-01 3.932156e-01 5000.0 1.680984e-01 1.487284e-01
</event>
<event>
4 7 1.0 5000.0 7.905138e-03 7.739137e-02
 2 -1 0 0 101   0  0.000000e+00  0.000000e+00  2.222244e+03  2.222244e+03 0.0 0.0 9.0
21 -1 0 0 103 101  0.000000e+00  0.000000e+00 -2.792277e+03  2.792277e+03 0.0 0.0 9.0
 2  1 1 2 103   0 -2.001901e+03  7.882997e+02 -1.548634e+03  2.650904e+03 0.0022 0.0 9.0
22  1 1 2   0   0  2.001901e+03 -7.882997e+02  9.786010e+02  2.363617e+03 0.0 0.0 9.0
#pdf 2 21 3.418837e-01 4.295811e-01 5000.0 2.004624e-01 1.176625e-01
</event>
<event>
4 7 1.0 5000.0 7.905138e-03 7.739137e-02
21 -1 0 0 103 101  0.000000e+00  0.000000e+00  1.417715e+03  1.417715e+03 0.0 0.0 9.0
 2 -1 0 0 101   0  0.000000e+00  0.000000e+00 -4.360440e+03  4.360440e+03 0.0 0.0 9.0
22  1 1 2   0   0  1.105807e+03  1.770431e+03  9.822704e+01  2.089709e+03 0.0 0.0 9.0
 2  1 1 2 103   0 -1.105807e+03 -1.770431e+03 -3.040952e+03  3.688445e+03 0.0022 0.0 9.0
#pdf 21 2 2.181099e-01 6.708369e-01 5000.0 9.966064e-02 1.898875e-04
</event>
<event>
4 7 1.0 5000.0 7.905138e-03 7.739137e-02
21 -1 0 0 103 101  0.000000e+00  0.000000e+00  4.067852e+03  4.067852e+03 0.0 0.0 9.0
 2 -1 0 0 101   0  0.000000e+00  0.000000e+00 -1.516279e+03  1.516279e+03 0.0 0.0 9.0
22  1 1 2   0   0 -1.170196e+03  5.185001e+02 -1.116939e+03  1.698751e+03 0.0 0.0 9.0
 2  1 1 2 103   0  1.170196e+03 -5.185001e+02  3.668511e+03  3.885380e+03 0.0022 0.0 9.0
#pdf 21 2 6.258233e-01 2.332737e-01 5000.0 4.204038e-04 8.221368e-02
</event>
<event>
4 7 1.0 5000.0 7.905138e-03 7.739137e-02
 2 -1 0 0 101   0  0.000000e+00  0.000000e+00  2.785791e+03  2.785791e+03 0.0 0.0 9.0
21 -1 0 0 103 101  0.000000e+00  0.000000e+00 -2.238996e+03  2.238996e+03 0.0 0.0 9.0
 2  1 1 2 103   0 -3.743162e+02  4.859278e+02 -2.162044e+03  2.247370e+03 0.0022 0.0 9.0
22  1 1 2   0   0  3.743162e+02 -4.859278e+02  2.708839e+03  2.777417e+03 0.0 0.0 9.0
#pdf 2 21 4.285833e-01 3.444609e-01 5000.0 1.184509e-01 1.976462e-01
</event>
<event>
4 7 1.0 5000.0 7.905138e-03 7.739137e-02
21 -1 0 0 103 101  0.000000e+00  0.000000e+00  1.802845e+03  1.802845e+03 0.0 0.0 9.0
 2 -1 0 0 101   0  0.000000e+00  0.000000e+00 -3.435813e+03  3.435813e+03 0.0 0.0 9.0
22  1 1 2   0   0 -8.943852e+02  1.188330e+03  1.283698e+03  1.964671e+03 0.0 0.0 9.0
 2  1 1 2 103   0  8.943852e+02 -1.188330e+03 -2.916665e+03  3.273987e+03 0.0022 0.0 9.0
#pdf 21 2 2.773608e-01 5.285865e-01 5000.0 4.754419e-02 1.887761e-03
</event>
<event>
4 7 1.0 5000.0 7.905138e-03 7.739137e-02
 2 -1 0 0 101   0  0.000000e+00  0.000000e+00  2.104118e+03  2.104118e+03 0.0 0.0 9.0
21 -1 0 0 103 101  0.000000e+00  0.000000e+00 -2.915248e+03  2.915248e+03 0.0 0.0 9.0
 2  1 1 2 103   0  7.170316e+02 -2.649439e+01  1.996489e+03  2.121510e+03 0.0022 0.0 9.0
22  1 1 2   0   0 -7.170316e+02  2.649439e+01 -2.807620e+03  2.897856e+03 0.0 0.0 9.0
#pdf 2 21 3.237104e-01 4.484998e-01 5000.0 2.209369e-01 1.033373e-01
</event>
<event>
4 7 1.0 5000.0 7.905138e-03 7.739137e-02
 2 -1 0 0 101   0  0.000000e+00  0.000000e+00  3.552780e+03  3.552780e+03 0.0 0.0 9.0
21 -1 0 0 103 101  0.000000e+00  0.000000e+00 -1.860311e+03  1.860311e+03 0.0 0.0 9.0
 2  1 1 2 103   0 -1.436725e+03 -2.533095e+02  3.074785e+03  3.403329e+03 0.0022 0.0 9.0
22  1 1 2   0   0  1.436725e+03  2.533095e+02 -1.382316e+03  2.009762e+03 0.0 0.0 9.0
#pdf 2 21 5.465815e-01 2.862017e-01 5000.0 4.777727e-02 2.663890e-01
</event>
<event>
4 7 1.0 5000.0 7.905138e-03 7.739137e-02
 2 -1 0 0 101   0  0.000000e+00  0.000000e+00  3.247717e+03  3.247717e+03 0.0 0.0 9.0
21 -1 0 0 103 101  0.000000e+00  0.000000e+00 -1.906141e+03  1.906141e+03 0.0 0.0 9.0
22  1 1 2   0   0  8.285134e+02 -1.810945e+03 -8.739926e+02  2.174815e+03 0.0 0.0 9.0
 2  1 1 2 103   0 -8.285134e+02  1.810945e+03  2.215569e+03  2.979044e+03 0.0022 0.0 9.0
#pdf 2 21 4.996488e-01 2.932525e-01 5000.0 7.064978e-02 2.575269e-01
</event>
<event>
4 7 1.0 5000.0 7.905138e-03 7.739137e-02
 2 -1 0 0 101   0  0.000000e+00  0.000000e+00  3.087255e+03  3.087255e+03 0.0 0.0 9.0
21 -1 0 0 103 101  0.000000e+00  0.000000e+00 -2.027510e+03  2.027510e+03 0.0 0.0 9.0
 2  1 1 2 103   0 -6.614910e+02 -7.799500e+01 -1.935214e+03  2.046633e+03 0.0022 0.0 9.0
22  1 1 2   0   0  6.614910e+02  7.799500e+01  2.994959e+03  3.068132e+03 0.0 0.0 9.0
#pdf 2 21 4.749623e-01 3.119246e-01 5000.0 8.535952e-02 2.347659e-01
</event>
<event>
4 7 1.0 5000.0 7.905138e-03 7.739137e-02
 2 -1 0 0 101   0  0.000000e+00  0.000000e+00  4.072243e+03  4.072243e+03 0.0 0.0 9.0
21 -1 0 0 103 101  0.000000e+00  0.000000e+00 -1.546309e+03  1.546309e+03 0.0 0.0 9.0
 2  1 1 2 103   0  5.807819e+02 -6.329139e+02 -1.376584e+03  1.622612e+03 0.0022 0.0 9.0
22  1 1 2   0   0 -5.807819e+02  6.329139e+02  3.902518e+03  3.995940e+03 0.0 0.0 9.0
#pdf 2 21 6.264989e-01 2.378937e-01 5000.0 2.186790e-02 3.299275e-01
</event>
<event>
4 7 1.0 5000.0 7.905138e-03 7.739137e-02
21 -1 0 0 103 101  0.000000e+00  0.000000e+00  1.990275e+03  1.990275e+03 0.0 0.0 9.0
 2 -1 0 0 101   0  0.000000e+00  0.000000e+00 -3.190698e+03  3.190698e+03 0.0 0.0 9.0
 2  1 1 2 103   0 -1.569940e+03  1.968726e+03 -7.018298e+02  2.614031e+03 0.0022 0.0 9.0
22  1 1 2   0   0  1.569940e+03 -1.968726e+03 -4.985932e+02  2.566942e+03 0.0 0.0 9.0
#pdf 21 2 3.061962e-01 4.908766e-01 5000.0 3.342197e-02 3.194135e-03
</event>
<event>
4 7 1.0 5000.0 7.905138e-03 7.739137e-02
21 -1 0 0 103 101  0.000000e+00  0.000000e+00  2.003106e+03  2.003106e+03 0.0 0.0 9.0
 2 -1 0 0 101   0  0.000000e+00  0.000000e+00 -3.024555e+03  3.024555e+03 0.0 0.0 9.0
22  1 1 2   0   0  1.399356e+03 -1.926857e+03  1.250545e+02  2.384662e+03 0.0 0.0 9.0
 2  1 1 2 103   0 -1.399356e+03  1.926857e+03 -1.146503e+03  2.642999e+03 0.0022 0.0 9.0
#pdf 21 2 3.081702e-01 4.653162e-01 5000.0 3.262335e-02 4.506593e-03
</event>
<event>
4 7 1.0 5000.0 7.905138e-03 7.739137e-02
 2 -1 0 0 101   0  0.000000e+00  0.000000e+00  2.215518e+03  2.215518e+03 0.0 0.0 9.0
21 -1 0 0 103 101  0.000000e+00  0.000000e+00 -2.823078e+03  2.823078e+03 0.0 0.0 9.0
22  1 1 2   0   0 -9.625075e+02  1.078806e+03  1.751890e+03  2.271423e+03 0.0 0.0 9.0
 2  1 1 2 103   0  9.625075e+02 -1.078806e+03 -2.359450e+03  2.767173e+03 0.0022 0.0 9.0
#pdf 2 21 3.408489e-01 4.343197e-01 5000.0 2.015991e-01 1.139681e-01
</event>
<event>
4 7 1.0 5000.0 7.905138e-03 7.739137e-02
 2 -1 0 0 101   0  0.000000e+00  0.000000e+00  1.627475e+03  1.627475e+03 0.0 0.0 9.0
21 -1 0 0 103 101  0.000000e+00  0.000000e+00 -3.836954e+03  3.836954e+03 0.0 0.0 9.0
22  1 1 2   0   0 -7.980356e+02 -1.610046e+03 -3.003366e+03  3.499902e+03 0.0 0.0 9.0
 2  1 1 2 103   0  7.980356e+02  1.610046e+03  7.938876e+02  1.964527e+03 0.0022 0.0 9.0
#pdf 2 21 2.503808e-01 5.903006e-01 5000.0 3.130881e-01 3.179037e-02
</event>
<event>
4 7 1.0 5000.0 7.905138e-03 7.739137e-02
21 -1 0 0 103 101  0.000000e+00  0.000000e+00  4.287265e+03  4.287265e+03 0.0 0.0 9.0
 2 -1 0 0 101   0  0.000000e+00  0.000000e+00 -1.585967e+03  1.585967e+03 0.0 0.0 9.0
22  1 1 2   0   0 -2.175356e+03 -6.737870e+01  2.968106e+03  3.680539e+03 0.0 0.0 9.0
 2  1 1 2 103   0  2.175356e+03  6.737870e+01 -2.668071e+02  2.192693e+03 0.0022 0.0 9.0
#pdf 21 2 6.595793e-01 2.439949e-01 5000.0 2.336803e-04 7.188533e-02
</event>
<event>
4 7 1.0 5000.0 7.905138e-03 7.739137e-02
 2 -1 0 0 101   0  0.000000e+00  0.000000e+00  2.224598e+03  2.224598e+03 0.0 0.0 9.0
21 -1 0 0 103 101  0.000000e+00  0.000000e+00 -2.796682e+03  2.796682e+03 0.0 0.0 9.0
 2  1 1 2 103   0 -2.196029e+03 -8.863086e+02  5.022962e+02  2.420824e+03 0.0022 0.0 9.0
22  1 1 2   0   0  2.196029e+03  8.863086e+02 -1.074380e+03  2.600457e+03 0.0 0.0 9.0
#pdf 2 21 3.422459e-01 4.302588e-01 5000.0 2.000653e-01 1.171292e-01
</event>
<event>
4 7 1.0 5000.0 7.905138e-03 7.739137e-02
21 -1 0 0 103 101  0.000000e+00  0.000000e+00  2.435959e+03  2.435959e+03 0.0 0.0 9.0
 2 -1 0 0 101   0  0.000000e+00  0.000000e+00 -2.669877e+03  2.669877e+03 0.0 0.0 9.0
22  1 1 2   0   0 -2.065624e+03  1.184482e+03 -1.031105e+03  2.594798e+03 0.0 0.0 9.0
 2  1 1 2 103   0  2.065624e+03 -1.184482e+03  7.971868e+02  2.511037e+03 0.0022 0.0 9.0
#pdf 21 2 3.747629e-01 4.107503e-01 5000.0 1.437581e-02 9.145994e-03
</event>
<event>
4 7 1.0 5000.0 7.905138e-03 7.739137e-02
 2 -1 0 0 101   0  0.000000e+00  0.000000e+00  2.393234e+03  2.393234e+03 0.0 0.0 9.0
21 -1 0 0 103 101  0.000000e+00  0.000000e+00 -2.625616e+03  2.625616e+03 0.0 0.0 9.0
22  1 1 2   0   0 -1.317108e+03 -2.528615e+02  2.003865e+03  2.411263e+03 0.0 0.0 9.0
 2  1 1 2 103   0  1.317108e+03  2.528615e+02 -2.236247e+03  2.607587e+03 0.0022 0.0 9.0
#pdf 2 21 3.681899e-01 4.039409e-01 5000.0 1.727849e-01 1.390758e-01
</event>
<event>
4 7 1.0 5000.0 7.905138e-03 7.739137e-02
21 -1 0 0 103 101  0.000000e+00  0.000000e+00  2.863345e+03  2.863345e+03 0.0 0.0 9.0
 2 -1 0 0 101   0  0.000000e+00  0.000000e+00 -2.202204e+03  2.202204e+03 0.0 0.0 9.0
22  1 1 2   0   0  1.057201e+02 -8.781218e+02 -2.039897e+03  2.223388e+03 0.0 0.0 9.0
 2  1 1 2 103   0 -1.057201e+02  8.781218e+02  2.701038e+03  2.842161e+03 0.0022 0.0 9.0
#pdf 21 2 4.405146e-01 3.388006e-01 5000.0 6.248543e-03 2.238963e-02
</event>
<event>
4 7 1.0 5000.0 7.905138e-03 7.739137e-02
21 -1 0 0 103 101  0.000000e+00  0.000000e+00  2.254495e+03  2.254495e+03 0.0 0.0 9.0
 2 -1 0 0 101   0  0.000000e+00  0.000000e+00 -2.785830e+03  2.785830e+03 0.0 0.0 9.0
22  1 1 2   0   0  4.764102e+02  4.628062e+02 -2.695709e+03  2.776329e+03 0.0 0.0 9.0
 2  1 1 2 103   0 -4.764102e+02 -4.628062e+02  2.164375e+03  2.263995e+03 0.0022 0.0 9.0
#pdf 21 2 3.468454e-01 4.285892e-01 5000.0 2.029091e-02 7.281578e-03
</event>
<event>
4 7 1.0 5000.0 7.905138e-03 7.739137e-02
21 -1 0 0 103 101  0.000000e+00  0.000000e+00  1.730428e+03  1.730428e+03 0.0 0.0 9.0
 2 -1 0 0 101   0  0.000000e+00  0.000000e+00 -3.431606e+03  3.431606e+03 0.0 0.0 9.0
22  1 1 2   0   0 -2.178295e+03  1.564348e+02 -1.995621e+03  2.958369e+03 0.0 0.0 9.0
 2  1 1 2 103   0  2.178295e+03 -1.564348e+02  2.944430e+02  2.203665e+03 0.0022 0.0 9.0
#pdf 21 2 2.662197e-01 5.279394e-01 5000.0 5.452729e-02 1.905217e-03
</event>
<event>
4 7 1.0 5000.0 7.905138e-03 7.739137e-02
 2 -1 0 0 101   0  0.000000e+00  0.000000e+00  1.199802e+03  1.199802e+03 0.0 0.0 9.0
21 -1 0 0 103 101  0.000000e+00  0.000000e+00 -4.949202e+03  4.949202e+03 0.0 0.0 9.0
22  1 1 2   0   0 -1.642926e+03 -1.533089e+03 -6.854307e+02  2.349337e+03 0.0 0.0 9.0
 2  1 1 2 103   0  1.642926e+03  1.533089e+03 -3.063969e+03  3.799668e+03 0.0022 0.0 9.0
#pdf 2 21 1.845850e-01 7.614157e-01 5000.0 4.031824e-01 3.502315e-03
</event>
<event>
4 7 1.0 5000.0 7.905138e-03 7.739137e-02
21 -1 0 0 103 101  0.000000e+00  0.000000e+00  2.300602e+03  2.300602e+03 0.0 0.0 9.0
 2 -1 0 0 101   0  0.000000e+00  0.000000e+00 -2.794386e+03  2.794386e+03 0.0 0.0 9.0
 2  1 1 2 103   0 -1.248793e+03 -1.858132e+03  9.489600e+02  2.431597e+03 0.0022 0.0 9.0
22  1 1 2   0   0  1.248793e+03  1.858132e+03 -1.442744e+03  2.663390e+03 0.0 0.0 9.0
#pdf 21 2 3.539388e-01 4.299055e-01 5000.0 1.858915e-02 7.159683e-03
</event>
<event>
4 7 1.0 5000.0 7.905138e-03 7.739137e-02
21 -1 0 0 103 101  0.000000e+00  0.000000e+00  3.835943e+03  3.835943e+03 0.0 0.0 9.0
 2 -1 0 0 101   0  0.000000e+00  0.000000e+00 -1.619843e+03  1.619843e+03 0.0 0.0 9.0
22  1 1 2   0   0  5.372870e+02 -1.340092e+03  3.331783e+03  3.631157e+03 0.0 0.0 9.0
 2  1 1 2 103   0 -5.372870e+02  1.340092e+03 -1.115683e+03  1.824629e+03 0.0022 0.0 9.0
#pdf 21 2 5.901451e-01 2.492066e-01 5000.0 7.503493e-04 6.738984e-02
</event>
<event>
4 7 1.0 5000.0 7.905138e-03 7.739137e-02
 2 -1 0 0 101   0  0.000000e+00  0.000000e+00  2.071296e+03  2.071296e+03 0.0 0.0 9.0
21 -1 0 0 103 101  0.000000e+00  0.000000e+00 -3.150664e+03  3.150664e+03 0.0 0.0 9.0
22  1 1 2   0   0  9.172417e+02 -2.166999e+03 -1.555987e+03  2.821048e+03 0.0 0.0 9.0
 2  1 1 2 103   0 -9.172417e+02  2.166999e+03  4.766186e+02  2.400913e+03 0.0022 0.0 9.0
#pdf 2 21 3.186610e-01 4.847176e-01 5000.0 2.268133e-01 7.931334e-02
</event>
<event>
4 7 1.0 5000.0 7.905138e-03 7.739137e-02
21 -1 0 0 103 101  0.000000e+00  0.000000e+00  1.404352e+03  1.404352e+03 0.0 0.0 9.0
 2 -1 0 0 101   0  0.000000e+00  0.000000e+00 -4.047334e+03  4.047334e+03 0.0 0.0 9.0
22  1 1 2   0   0 -1.842919e+03 -5.681980e+02 -2.924089e+03  3.502784e+03 0.0 0.0 9.0
 2  1 1 2 103   0  1.842919e+03  5.681980e+02  2.811062e+02  1.948902e+03 0.0022 0.0 9.0
#pdf 21 2 2.160541e-01 6.226668e-01 5000.0 1.023176e-01 4.433095e-04
</event>
<event>
4 7 1.0 5000.0 7.905138e-03 7.739137e-02
21 -1 0 0 103 101  0.000000e+00  0.000000e+00  3.044789e+03  3.044789e+03 0.0 0.0 9.0
 2 -1 0 0 101   0  0.000000e+00  0.000000e+00 -2.160408e+03  2.160408e+03 0.0 0.0 9.0
 2  1 1 2 103   0 -6.002339e+02 -6.976916e+01  2.971522e+03  3.032341e+03 0.0022 0.0 9.0
22  1 1 2   0   0  6.002339e+02  6.976916e+01 -2.087141e+03  2.172857e+03 0.0 0.0 9.0
#pdf 21 2 4.684291e-01 3.323705e-01 5000.0 4.324283e-03 2.423193e-02
</event>
<event>
4 7 1.0 5000.0 7.905138e-03 7.739137e-02
21 -1 0 0 103 101  0.000000e+00  0.000000e+00  2.438097e+03  2.438097e+03 0.0 0.0 9.0
 2 -1 0 0 101   0  0.000000e+00  0.000000e+00 -2.531609e+03  2.531609e+03 0.0 0.0 9.0
 2  1 1 2 103   0  2.175326e+03 -1.114179e+03 -4.927800e+02  2.493245e+03 0.0022 0.0 9.0
22  1 1 2   0   0 -2.175326e+03  1.114179e+03  3.992679e+02  2.476460e+03 0.0 0.0 9.0
#pdf 21 2 3.750918e-01 3.894783e-01 5000.0 1.431815e-02 1.196188e-02
</event>
<event>
4 7 1.0 5000.0 7.905138e-03 7.739137e-02
21 -1 0 0 103 101  0.000000e+00  0.000000e+00  1.862517e+03  1.862517e+03 0.0 0.0 9.0
 2 -1 0 0 101   0  0.000000e+00  0.000000e+00 -3.207010e+03  3.207010e+03 0.0 0.0 9.0
 2  1 1 2 103   0  1.503042e+03 -1.553484e+03 -1.855068e+03  2.848460e+03 0.0022 0.0 9.0
22  1 1 2   0   0 -1.503042e+03  1.553484e+03  5.105753e+02  2.221067e+03 0.0 0.0 9.0
#pdf 21 2 2.865411e-01 4.933861e-01 5000.0 4.248148e-02 3.086751e-03
</event>
<event>
4 7 1.0 5000.0 7.905138e-03 7.739137e-02
 2 -1 0 0 101   0  0.000000e+00  0.000000e+00  3.892638e+03  3.892638e+03 0.0 0.0 9.0
21 -1 0 0 103 101  0.000000e+00  0.000000e+00 -1.678835e+03  1.678835e+03 0.0 0.0 9.0
 2  1 1 2 103   0  2.066361e+03 -8.726845e+02  2.443158e+03  3.316693e+03 0.0022 0.0 9.0
22  1 1 2   0   0 -2.066361e+03  8.726845e+02 -2.293557e+02  2.254780e+03 0.0 0.0 9.0
#pdf 2 21 5.988673e-01 2.582823e-01 5000.0 2.919395e-02 3.025704e-01
</event>
<event>
4 7 1.0 5000.0 7.905138e-03 7.739137e-02
 2 -1 0 0 101   0  0.000000e+00  0.000000e+00  1.432206e+03  1.432206e+03 0.0 0.0 9.0
21 -1 0 0 103 101  0.000000e+00  0.000000e+00 -4.287442e+03  4.287442e+03 0.0 0.0 9.0
 2  1 1 2 103   0  2.131141e+03  6.410841e+02 -2.685384e+03  3.487698e+03 0.0022 0.0 9.0
22  1 1 2   0   0 -2.131141e+03 -6.410841e+02 -1.698529e+02  2.231950e+03 0.0 0.0 9.0
#pdf 2 21 2.203393e-01 6.596065e-01 5000.0 3.539472e-01 1.499910e-02
</event>
<event>
4 7 1.0 5000.0 7.905138e-03 7.739137e-02
 2 -1 0 0 101   0  0.000000e+00  0.000000e+00  3.431321e+03  3.431321e+03 0.0 0.0 9.0
21 -1 0 0 103 101  0.000000e+00  0.000000e+00 -1.839800e+03  1.839800e+03 0.0 0.0 9.0
 2  1 1 2 103   0  1.705952e+03  1.585696e+03  1.784364e+03  2.934052e+03 0.0022 0.0 9.0
22  1 1 2   0   0 -1.705952e+03 -1.585696e+03 -1.928432e+02  2.337070e+03 0.0 0.0 9.0
#pdf 2 21 5.278956e-01 2.830462e-01 5000.0 5.613071e-02 2.703923e-01
</event>
<event>
4 7 1.0 5000.0 7.905138e-03 7.739137e-02
 2 -1 0 0 101   0  0.000000e+00  0.000000e+00  2.552199e+03  2.552199e+03 0.0 0.0 9.0
21 -1 0 0 103 101  0.000000e+00  0.000000e+00 -2.510958e+03  2.510958e+03 0.0 0.0 9.0
22  1 1 2   0   0 -8.849236e+02 -1.920317e+03  1.412701e+03  2.542918e+03 0.0 0.0 9.0
 2  1 1 2 103   0  8.849236e+02  1.920317e+03 -1.371459e+03  2.520240e+03 0.0022 0.0 9.0
#pdf 2 21 3.926460e-01 3.863012e-01 5000.0 1.492517e-01 1.551557e-01
</event>
<event>
4 7 1.0 5000.0 7.905138e-03 7.739137e-02
21 -1 0 0 103 101  0.000000e+00  0.000000e+00  2.643262e+03  2.643262e+03 0.0 0.0 9.0
 2 -1 0 0 101   0  0.000000e+00  0.000000e+00 -2.347674e+03  2.347674e+03 0.0 0.0 9.0
22  1 1 2   0   0  1.279110e+03 -2.520948e+02  2.274224e+03  2.621405e+03 0.0 0.0 9.0
 2  1 1 2 103   0 -1.279110e+03  2.520948e+02 -1.978636e+03  2.369530e+03 0.0022 0.0 9.0
#pdf 21 2 4.066556e-01 3.611806e-01 5000.0 9.635242e-03 1.700103e-02
</event>
<event>
4 7 1.0 5000.0 7.905138e-03 7.739137e-02
21 -1 0 0 103 101  0.000000e+00  0.000000e+00  1.963667e+03  1.963667e+03 0.0 0.0 9.0
 2 -1 0 0 101   0  0.000000e+00  0.000000e+00 -3.040654e+03  3.040654e+03 0.0 0.0 9.0
22  1 1 2   0   0  2.222264e+03  6.324273e+02 -1.352818e+03  2.677412e+03 0.0 0.0 9.0
 2  1 1 2 103   0 -2.222264e+03 -6.324273e+02  2.758305e+02  2.326908e+03 0.0022 0.0 9.0
#pdf 21 2 3.021025e-01 4.677929e-01 5000.0 3.511570e-02 4.360997e-03
</event>
<event>
4 7 1.0 5000.0 7.905138e-03 7.739137e-02
21 -1 0 0 103 101  0.000000e+00  0.000000e+00  1.950976e+03  1.950976e+03 0.0 0.0 9.0
 2 -1 0 0 101   0  0.000000e+00  0.000000e+00 -3.232055e+03  3.232055e+03 0.0 0.0 9.0
 2  1 1 2 103   0  6.183268e+02 -1.742809e+03 -2.393746e+03  3.024852e+03 0.0022 0.0 9.0
22  1 1 2   0   0 -6.183268e+02  1.742809e+03  1.112667e+03  2.158179e+03 0.0 0.0 9.0
#pdf 21 2 3.001502e-01 4.972393e-01 5000.0 3.594361e-02 2.927976e-03
</event>
<event>
4 7 1.0 5000.0 7.905138e-03 7.739137e-02
21 -1 0 0 103 101  0.000000e+00  0.000000e+00  2.698812e+03  2.698812e+03 0.0 0.0 9.0
 2 -1 0 0 101   0  0.000000e+00  0.000000e+00 -2.213535e+03  2.213535e+03 0.0 0.0 9.0
22  1 1 2   0   0  1.353553e+03  8.500946e+02 -1.615545e+03  2.272609e+03 0.0 0.0 9.0
 2  1 1 2 103   0 -1.353553e+03 -8.500946e+02  2.100822e+03  2.639738e+03 0.0022 0.0 9.0
#pdf 21 2 4.152018e-01 3.405439e-01 5000.0 8.642475e-03 2.191645e-02
</event>
<event>
4 7 1.0 5000.0 7.905138e-03 7.739137e-02
21 -1 0 0 103 101  0.000000e+00  0.000000e+00  2.471426e+03  2.471426e+03 0.0 0.0 9.0
 2 -1 0 0 101   0  0.000000e+00  0.000000e+00 -2.516235e+03  2.516235e+03 0.0 0.0 9.0
 2  1 1 2 103   0  2.258702e+03 -1.009573e+03  2.901994e+02  2.491022e+03 0.0022 0.0 9.0
22  1 1 2   0   0 -2.258702e+03  1.009573e+03 -3.350083e+02  2.496639e+03 0.0 0.0 9.0
#pdf 21 2 3.802193e-01 3.871130e-01 5000.0 1.343899e-02 1.232408e-02
</event>
<event>
4 7 1.0 5000.0 7.905138e-03 7.739137e-02
 2 -1 0 0 101   0  0.000000e+00  0.000000e+00  4.070997e+03  4.070997e+03 0.0 0.0 9.0
21 -1 0 0 103 101  0.000000e+00  0.000000e+00 -1.504307e+03  1.504307e+03 0.0 0.0 9.0
 2  1 1 2 103   0  1.287153e+03 -5.815045e+02 -1.005670e+03  1.733863e+03 0.0022 0.0 9.0
22  1 1 2   0   0 -1.287153e+03  5.815045e+02  3.572360e+03  3.841441e+03 0.0 0.0 9.0
#pdf 2 21 6.263072e-01 2.314318e-01 5000.0 2.191354e-02 3.387661e-01
</event>
<event>
4 7 1.0 5000.0 7.905138e-03 7.739137e-02
21 -1 0 0 103 101  0.000000e+00  0.000000e+00  2.299549e+03  2.299549e+03 0.0 0.0 9.0
 2 -1 0 0 101   0  0.000000e+00  0.000000e+00 -2.828199e+03  2.828199e+03 0.0 0.0 9.0
 2  1 1 2 103   0  2.459121e+03  2.284364e+02  3.747906e+02  2.497984e+03 0.0022 0.0 9.0
22  1 1 2   0   0 -2.459121e+03 -2.284364e+02 -9.034406e+02  2.629765e+03 0.0 0.0 9.0
#pdf 21 2 3.537768e-01 4.351076e-01 5000.0 1.862678e-02 6.699394e-03
</event>
<event>
4 7 1.0 5000.0 7.905138e-03 7.739137e-02
 2 -1 0 0 101   0  0.000000e+00  0.000000e+00  1.621203e+03  1.621203e+03 0.0 0.0 9.0
21 -1 0 0 103 101  0.000000e+00  0.000000e+00 -3.821180e+03  3.821180e+03 0.0 0.0 9.0
22  1 1 2   0   0 -2.855610e+02  1.603059e+03 -3.158067e+03  3.553129e+03 0.0 0.0 9.0
 2  1 1 2 103   0  2.855610e+02 -1.603059e+03  9.580891e+02  1.889253e+03 0.0022 0.0 9.0
#pdf 2 21 2.494158e-01 5.878739e-01 5000.0 3.143863e-01 3.255660e-02
</event>
<event>
4 7 1.0 5000.0 7.905138e-03 7.739137e-02
21 -1 0 0 103 101  0.000000e+00  0.000000e+00  1.391689e+03  1.391689e+03 0.0 0.0 9.0
 2 -1 0 0 101   0  0.000000e+00  0.000000e+00 -3.802814e+03  3.802814e+03 0.0 0.0 9.0
 2  1 1 2 103   0 -1.748853e+02  7.665448e+02 -3.646418e+03  3.730220e+03 0.0022 0.0 9.0
22  1 1 2   0   0  1.748853e+02 -7.665448e+02  1.235293e+03  1.464283e+03 0.0 0.0 9.0
#pdf 21 2 2.141060e-01 5.850483e-01 5000.0 1.048957e-01 8.127609e-04
</event>
<event>
4 7 1.0 5000.0 7.905138e-03 7.739137e-02
21 -1 0 0 103 101  0.000000e+00  0.000000e+00  2.531091e+03  2.531091e+03 0.0 0.0 9.0
 2 -1 0 0 101   0  0.000000e+00  0.000000e+00 -2.371905e+03  2.371905e+03 0.0 0.0 9.0
 2  1 1 2 103   0  2.191250e+03 -1.096209e+03  9.554026e+01  2.452015e+03 0.0022 0.0 9.0
22  1 1 2   0   0 -2.191250e+03  1.096209e+03  6.364572e+01  2.450980e+03 0.0 0.0 9.0
#pdf 21 2 3.893985e-01 3.649084e-01 5000.0 1.197391e-02 1.623910e-02
</event>
<event>
4 7 1.0 5000.0 7.905138e-03 7.739137e-02
 2 -1 0 0 101   0  0.000000e+00  0.000000e+00  2.311396e+03  2.311396e+03 0.0 0.0 9.0
21 -1 0 0 103 101  0.000000e+00  0.000000e+00 -2.683096e+03  2.683096e+03 0.0 0.0 9.0
 2  1 1 2 103   0  8.127342e+02 -4.507553e+02  2.130982e+03  2.324823e+03 0.0022 0.0 9.0
22  1 1 2   0   0 -8.127342e+02  4.507553e+02 -2.502682e+03  2.669669e+03 0.0 0.0 9.0
#pdf 2 21 3.555994e-01 4.127840e-01 5000.0 1.857350e-01 1.314286e-01
</event>
<event>
4 7 1.0 5000.0 7.905138e-03 7.739137e-02
21 -1 0 0 103 101  0.000000e+00  0.000000e+00  1.652910e+03  1.652910e+03 0.0 0.0 9.0
 2 -1 0 0 101   0  0.000000e+00  0.000000e+00 -3.715335e+03  3.715335e+03 0.0 0.0 9.0
22  1 1 2   0   0 -1.532635e+03  1.821118e+03 -1.778234e+03  2.971120e+03 0.0 0.0 9.0
 2  1 1 2 103   0  1.532635e+03 -1.821118e+03 -2.841911e+02  2.397124e+03 0.0022 0.0 9.0
#pdf 21 2 2.542938e-01 5.715900e-01 5000.0 6.327385e-02 1.000101e-03
</event>
<event>
4 7 1.0 5000.0 7.905138e-03 7.739137e-02
 2 -1 0 0 101   0  0.000000e+00  0.000000e+00  3.096110e+03  3.096110e+03 0.0 0.0 9.0
21 -1 0 0 103 101  0.000000e+00  0.000000e+00 -1.935888e+03  1.935888e+03 0.0 0.0 9.0
22  1 1 2   0   0 -4.603345e+02 -2.347337e+03  4.430801e+01  2.392460e+03 0.0 0.0 9.0
 2  1 1 2 103   0  4.603345e+02  2.347337e+03  1.115914e+03  2.639539e+03 0.0022 0.0 9.0
#pdf 2 21 4.763246e-01 2.978289e-01 5000.0 8.449596e-02 2.518609e-01
</event>
<event>
4 7 1.0 5000.0 7.905138e-03 7.739137e-02
21 -1 0 0 103 101  0.000000e+00  0.000000e+00  2.491154e+03  2.491154e+03 0.0 0.0 9.0
 2 -1 0 0 101   0  0.000000e+00  0.000000e+00 -2.496785e+03  2.496785e+03 0.0 0.0 9.0
 2  1 1 2 103   0  4.868363e+02  2.446387e+02 -2.436542e+03  2.496717e+03 0.0022 0.0 9.0
22  1 1 2   0   0 -4.868363e+02 -2.446387e+02  2.430911e+03  2.491222e+03 0.0 0.0 9.0
#pdf 21 2 3.832545e-01 3.841207e-01 5000.0 1.293782e-02 1.279768e-02
</event>
<event>
4 7 1.0 5000.0 7.905138e-03 7.739137e-02
 2 -1 0 0 101   0  0.000000e+00  0.000000e+00  1.325429e+03  1.325429e+03 0.0 0.0 9.0
21 -1 0 0 103 101  0.000000e+00  0.000000e+00 -4.613589e+03  4.613589e+03 0.0 0.0 9.0
22  1 1 2   0   0  1.346906e+03  3.112493e+02  8.180776e+02  1.606326e+03 0.0 0.0 9.0
 2  1 1 2 103   0 -1.346906e+03 -3.112493e+02 -4.106238e+03  4.332692e+03 0.0022 0.0 9.0
#pdf 2 21 2.039121e-01 7.097829e-01 5000.0 3.766440e-01 7.816596e-03
</event>
<event>
4 7 1.0 5000.0 7.905138e-03 7.739137e-02
 2 -1 0 0 101   0  0.000000e+00  0.000000e+00  2.667464e+03  2.667464e+03 0.0 0.0 9.0
21 -1 0 0 103 101  0.000000e+00  0.000000e+00 -2.217593e+03  2.217593e+03 0.0 0.0 9.0
 2  1 1 2 103   0 -1.069750e+03 -2.082539e+03 -4.366750e+02  2.381600e+03 0.0022 0.0 9.0
22  1 1 2   0   0  1.069750e+03  2.082539e+03  8.865459e+02  2.503457e+03 0.0 0.0 9.0
#pdf 2 21 4.103790e-01 3.411681e-01 5000.0 1.334811e-01 2.012481e-01
</event>
<event>
4 7 1.0 5000.0 7.905138e-03 7.739137e-02
21 -1 0 0 103 101  0.000000e+00  0.000000e+00  1.988492e+03  1.988492e+03 0.0 0.0 9.0
 2 -1 0 0 101   0  0.000000e+00  0.000000e+00 -3.117233e+03  3.117233e+03 0.0 0.0 9.0
22  1 1 2   0   0  9.495060e+02  2.105544e+03 -1.517311e+03  2.763532e+03 0.0 0.0 9.0
 2  1 1 2 103   0 -9.495060e+02 -2.105544e+03  3.885702e+02  2.342192e+03 0.0022 0.0 9.0
#pdf 21 2 3.059218e-01 4.795743e-01 5000.0 3.353400e-02 3.723768e-03
</event>
<event>
4 7 1.0 5000.0 7.905138e-03 7.739137e-02
21 -1 0 0 103 101  0.000000e+00  0.000000e+00  4.625166e+03  4.625166e+03 0.0 0.0 9.0
 2 -1 0 0 101   0  0.000000e+00  0.000000e+00 -1.368194e+03  1.368194e+03 0.0 0.0 9.0
22  1 1 2   0   0  1.125169e+03 -1.190294e+03 -6.459349e+02  1.760692e+03 0.0 0.0 9.0
 2  1 1 2 103   0 -1.125169e+03  1.190294e+03  3.902907e+03  4.232669e+03 0.0022 0.0 9.0
#pdf 21 2 7.115640e-01 2.104914e-01 5000.0 8.556643e-05 1.098316e-01
</event>
<event>
4 7 1.0 5000.0 7.905138e-03 7.739137e-02
 2 -1 0 0 101   0  0.000000e+00  0.000000e+00  1.421959e+03  1.421959e+03 0.0 0.0 9.0
21 -1 0 0 103 101  0.000000e+00  0.000000e+00 -4.306238e+03  4.306238e+03 0.0 0.0 9.0
22  1 1 2   0   0  2.372734e+03 -6.971730e+02 -1.342748e+03  2.814053e+03 0.0 0.0 9.0
 2  1 1 2 103   0 -2.372734e+03  6.971730e+02 -1.541531e+03  2.914144e+03 0.0022 0.0 9.0
#pdf 2 21 2.187629e-01 6.624981e-01 5000.0 3.561087e-01 1.448031e-02
</event>
<event>
4 7 1.0 5000.0 7.905138e-03 7.739137e-02
21 -1 0 0 103 101  0.000000e+00  0.000000e+00  2.719887e+03  2.719887e+03 0.0 0.0 9.0
 2 -1 0 0 101   0  0.000000e+00  0.000000e+00 -2.304886e+03  2.304886e+03 0.0 0.0 9.0
 2  1 1 2 103   0  2.260938e+03 -5.634123e+02 -7.120226e+02  2.436442e+03 0.0022 0.0 9.0
22  1 1 2   0   0 -2.260938e+03  5.634123e+02  1.127024e+03  2.588331e+03 0.0 0.0 9.0
#pdf 21 2 4.184442e-01 3.545978e-01 5000.0 8.293135e-03 1.843660e-02
</event>
<event>
4 7 1.0 5000.0 7.905138e-03 7.739137e-02
 2 -1 0 0 101   0  0.000000e+00  0.000000e+00  2.435061e+03  2.435061e+03 0.0 0.0 9.0
21 -1 0 0 103 101  0.000000e+00  0.000000e+00 -2.574306e+03  2.574306e+03 0.0 0.0 9.0
22  1 1 2   0   0 -1.188747e+03  1.575831e+03 -1.610422e+03  2.547513e+03 0.0 0.0 9.0
 2  1 1 2 103   0  1.188747e+03 -1.575831e+03  1.471177e+03  2.461854e+03 0.0022 0.0 9.0
#pdf 2 21 3.746247e-01 3.960471e-01 5000.0 1.663900e-01 1.461421e-01
</event>
<event>
4 7 1.0 5000.0 7.905138e-03 7.739137e-02
21 -1 0 0 103 101  0.000000e+00  0.000000e+00  2.865511e+03  2.865511e+03 0.0 0.0 9.0
 2 -1 0 0 101   0  0.000000e+00  0.000000e+00 -2.144389e+03  2.144389e+03 0.0 0.0 9.0
22  1 1 2   0   0 -5.642505e+01  2.433597e+03 -1.125450e+02  2.436852e+03 0.0 0.0 9.0
 2  1 1 2 103   0  5.642505e+01 -2.433597e+03  8.336668e+02  2.573049e+03 0.0022 0.0 9.0
#pdf 21 2 4.408478e-01 3.299060e-01 5000.0 6.221421e-03 2.497498e-02
</event>
<event>
4 7 1.0 5000.0 7.905138e-03 7.739137e-02
21 -1 0 0 103 101  0.000000e+00  0.000000e+00  2.665601e+03  2.665601e+03 0.0 0.0 9.0
 2 -1 0 0 101   0  0.000000e+00  0.000000e+00 -2.230344e+03  2.230344e+03 0.0 0.0 9.0
 2  1 1 2 103   0 -5.338920e+02 -1.351169e+03  2.183604e+03  2.622751e+03 0.0022 0.0 9.0
22  1 1 2   0   0  5.338920e+02  1.351169e+03 -1.748346e+03  2.273194e+03 0.0 0.0 9.0
#pdf 21 2 4.100925e-01 3.431298e-01 5000.0 9.222913e-03 2.123425e-02
</event>
<event>
4 7 1.0 5000.0 7.905138e-03 7.739137e-02
21 -1 0 0 103 101  0.000000e+00  0.000000e+00  3.309706e+03  3.309706e+03 0.0 0.0 9.0
 2 -1 0 0 101   0  0.000000e+00  0.000000e+00 -1.974708e+03  1.974708e+03 0.0 0.0 9.0
22  1 1 2   0   0  2.065224e+03  3.617073e+02 -8.443189e+02  2.260278e+03 0.0 0.0 9.0
 2  1 1 2 103   0 -2.065224e+03 -3.617073e+02  2.179316e+03  3.024136e+03 0.0022 0.0 9.0
#pdf 21 2 5.091855e-01 3.038013e-01 5000.0 2.481391e-03 3.440743e-02
</event>
<event>
4 7 1.0 5000.0 7.905138e-03 7.739137e-02
21 -1 0 0 103 101  0.000000e+00  0.000000e+00  1.829591e+03  1.829591e+03 0.0 0.0 9.0
 2 -1 0 0 101   0  0.000000e+00  0.000000e+00 -3.463090e+03  3.463090e+03 0.0 0.0 9.0
22  1 1 2   0   0 -2.104333e+03 -8.087463e+02  3.604278e+02  2.283024e+03 0.0 0.0 9.0
 2  1 1 2 103   0  2.104333e+03  8.087463e+02 -1.993927e+03  3.009657e+03 0.0022 0.0 9.0
#pdf 21 2 2.814755e-01 5.327830e-01 5000.0 4.519497e-02 1.777490e-03
</event>
<event>
4 7 1.0 5000.0 7.905138e-03 7.739137e-02
21 -1 0 0 103 101  0.000000e+00  0.000000e+00  2.181929e+03  2.181929e+03 0.0 0.0 9.0
 2 -1 0 0 101   0  0.000000e+00  0.000000e+00 -2.889789e+03  2.889789e+03 0.0 0.0 9.0
 2  1 1 2 103   0 -7.395596e+01 -4.942513e+02  2.131198e+03  2.189009e+03 0.0022 0.0 9.0
22  1 1 2   0   0  7.395596e+01  4.942513e+02 -2.839059e+03  2.882708e+03 0.0 0.0 9.0
#pdf 21 2 3.356813e-01 4.445829e-01 5000.0 2.326544e-02 5.921020e-03
</event>
<event>
4 7 1.0 5000.0 7.905138e-03 7.739137e-02
 2 -1 0 0 101   0  0.000000e+00  0.000000e+00  1.586430e+03  1.586430e+03 0.0 0.0 9.0
21 -1 0 0 103 101  0.000000e+00  0.000000e+00 -3.788231e+03  3.788231e+03 0.0 0.0 9.0
 2  1 1 2 103   0  1.237900e+03  2.511471e+02 -3.404054e+03  3.630848e+03 0.0022 0.0 9.0
22  1 1 2   0   0 -1.237900e+03 -2.511471e+02  1.202254e+03  1.743814e+03 0.0 0.0 9.0
#pdf 2 21 2.440662e-01 5.828048e-01 5000.0 3.215960e-01 3.420043e-02
</event>
<event>
4 7 1.0 5000.0 7.905138e-03 7.739137e-02
21 -1 0 0 103 101  0.000000e+00  0.000000e+00  1.866756e+03  1.866756e+03 0.0 0.0 9.0
 2 -1 0 0 101   0  0.000000e+00  0.000000e+00 -3.361440e+03  3.361440e+03 0.0 0.0 9.0
22  1 1 2   0   0 -9.319201e+02 -1.458955e+03 -2.636713e+03  3.154248e+03 0.0 0.0 9.0
 2  1 1 2 103   0  9.319201e+02  1.458955e+03  1.142030e+03  2.073947e+03 0.0022 0.0 9.0
#pdf 21 2 2.871932e-01 5.171445e-01 5000.0 4.214702e-02 2.219618e-03
</event>
<event>
4 7 1.0 5000.0 7.905138e-03 7.739137e-02
21 -1 0 0 103 101  0.000000e+00  0.000000e+00  1.704527e+03  1.704527e+03 0.0 0.0 9.0
 2 -1 0 0 101   0  0.000000e+00  0.000000e+00 -3.587975e+03  3.587975e+03 0.0 0.0 9.0
 2  1 1 2 103   0  6.435254e+02  2.151336e+03 -2.050366e+03  3.040785e+03 0.0022 0.0 9.0
22  1 1 2   0   0 -6.435254e+02 -2.151336e+03  1.669173e+02  2.251718e+03 0.0 0.0 9.0
#pdf 21 2 2.622349e-01 5.519962e-01 5000.0 5.728625e-02 1.341391e-03
</event>
<event>
4 7 1.0 5000.0 7.905138e-03 7.739137e-02
21 -1 0 0 103 101  0.000000e+00  0.000000e+00  2.826077e+03  2.826077e+03 0.0 0.0 9.0
 2 -1 0 0 101   0  0.000000e+00  0.000000e+00 -2.157483e+03  2.157483e+03 0.0 0.0 9.0
 2  1 1 2 103   0 -4.106154e+01 -9.925786e+02  2.615520e+03  2.797828e+03 0.0022 0.0 9.0
22  1 1 2   0   0  4.106154e+01  9.925786e+02 -1.946927e+03  2.185732e+03 0.0 0.0 9.0
#pdf 21 2 4.347810e-01 3.319205e-01 5000.0 6.727411e-03 2.436606e-02
</event>
<event>
4 7 1.0 5000.0 7.905138e-03 7.739137e-02
21 -1 0 0 103 101  0.000000e+00  0.000000e+00  1.848057e+03  1.848057e+03 0.0 0.0 9.0
 2 -1 0 0 101   0  0.000000e+00  0.000000e+00 -3.376224e+03  3.376224e+03 0.0 0.0 9.0
22  1 1 2   0   0  2.249746e+02 -2.296872e+03  2.352516e+02  2.319823e+03 0.0 0.0 9.0
 2  1 1 2 103   0 -2.249746e+02  2.296872e+03 -1.763419e+03  2.904459e+03 0.0022 0.0 9.0
#pdf 21 2 2.843165e-01 5.194191e-01 5000.0 4.364636e-02 2.149226e-03
</event>
<event>
4 7 1.0 5000.0 7.905138e-03 7.739137e-02
 2 -1 0 0 101   0  0.000000e+00  0.000000e+00  1.886350e+03  1.886350e+03 0.0 0.0 9.0
21 -1 0 0 103 101  0.000000e+00  0.000000e+00 -3.600636e+03  3.600636e+03 0.0 0.0 9.0
 2  1 1 2 103   0  1.508327e+03 -7.616686e+01 -3.093029e+03  3.442046e+03 0.0022 0.0 9.0
22  1 1 2   0   0 -1.508327e+03  7.616686e+01  1.378742e+03  2.044940e+03 0.0 0.0 9.0
#pdf 2 21 2.902077e-01 5.539440e-01 5000.0 2.613370e-01 4.474431e-02
</event>
<event>
4 7 1.0 5000.0 7.905138e-03 7.739137e-02
 2 -1 0 0 101   0  0.000000e+00  0.000000e+00  2.334836e+03  2.334836e+03 0.0 0.0 9.0
21 -1 0 0 103 101  0.000000e+00  0.000000e+00 -2.760483e+03  2.760483e+03 0.0 0.0 9.0
22  1 1 2   0   0  2.224515e+03  1.000208e+03 -9.198449e+02  2.606722e+03 0.0 0.0 9.0
 2  1 1 2 103   0 -2.224515e+03 -1.000208e+03  4.941976e+02  2.488597e+03 0.0022 0.0 9.0
#pdf 2 21 3.592055e-01 4.246897e-01 5000.0 1.819718e-01 1.215645e-01
</event>
<event>
4 7 1.0 5000.0 7.905138e-03 7.739137e-02
21 -1 0 0 103 101  0.000000e+00  0.000000e+00  1.422584e+03  1.422584e+03 0.0 0.0 9.0
 2 -1 0 0 101   0  0.000000e+00  0.000000e+00 -4.487843e+03  4.487843e+03 0.0 0.0 9.0
 2  1 1 2 103   0 -3.959225e+02 -7.234726e+02  1.260732e+03  1.506523e+03 0.0022 0.0 9.0
22  1 1 2   0   0  3.959225e+02  7.234726e+02 -4.325991e+03  4.403904e+03 0.0 0.0 9.0
#pdf 21 2 2.188590e-01 6.904374e-01 5000.0 9.870898e-02 1.308721e-04
</event>
<event>
4 7 1.0 5000.0 7.905138e-03 7.739137e-02
 2 -1 0 0 101   0  0.000000e+00  0.000000e+00  1.699906e+03  1.699906e+03 0.0 0.0 9.0
21 -1 0 0 103 101  0.000000e+00  0.000000e+00 -3.687612e+03  3.687612e+03 0.0 0.0 9.0
22  1 1 2   0   0 -1.296072e+03  1.865716e+03  1.386069e+02  2.275942e+03 0.0 0.0 9.0
 2  1 1 2 103   0  1.296072e+03 -1.865716e+03 -2.126312e+03  3.111576e+03 0.0022 0.0 9.0
#pdf 2 21 2.615241e-01 5.673249e-01 5000.0 2.982958e-01 3.960478e-02
</event>
<event>
4 7 1.0 5000.0 7.905138e-03 7.739137e-02
 2 -1 0 0 101   0  0.000000e+00  0.000000e+00  1.506161e+03  1.506161e+03 0.0 0.0 9.0
21 -1 0 0 103 101  0.000000e+00  0.000000e+00 -3.793913e+03  3.793913e+03 0.0 0.0 9.0
22  1 1 2   0   0  1.352078e+02  2.185404e+03 -2.207184e+03  3.109009e+03 0.0 0.0 9.0
 2  1 1 2 103   0 -1.352078e+02 -2.185404e+03 -8.056816e+01  2.191065e+03 0.0022 0.0 9.0
#pdf 2 21 2.317170e-01 5.836789e-01 5000.0 3.383751e-01 3.391273e-02
</event>
<event>
4 7 1.0 5000.0 7.905138e-03 7.739137e-02
21 -1 0 0 103 101  0.000000e+00  0.000000e+00  3.123318e+03  3.123318e+03 0.0 0.0 9.0
 2 -1 0 0 101   0  0.000000e+00  0.000000e+00 -2.011689e+03  2.011689e+03 0.0 0.0 9.0
 2  1 1 2 103   0  2.311643e+03  8.559296e+02  8.997468e+01  2.466658e+03 0.0022 0.0 9.0
22  1 1 2   0   0 -2.311643e+03 -8.559296e+02  1.021654e+03  2.668349e+03 0.0 0.0 9.0
#pdf 21 2 4.805105e-01 3.094906e-01 5000.0 3.676825e-03 3.209702e-02
</event>
<event>
4 7 1.0 5000.0 7.905138e-03 7.739137e-02
21 -1 0 0 103 101  0.000000e+00  0.000000e+00  3.623144e+03  3.623144e+03 0.0 0.0 9.0
 2 -1 0 0 101   0  0.000000e+00  0.000000e+00 -1.738494e+03  1.738494e+03 0.0 0.0 9.0
22  1 1 2   0   0  2.130708e+03 -1.772214e+02 -4.616064e+02  2.187328e+03 0.0 0.0 9.0
 2  1 1 2 103   0 -2.130708e+03  1.772214e+02  2.346257e+03  3.174310e+03 0.0022 0.0 9.0
#pdf 21 2 5.574068e-01 2.674606e-01 5000.0 1.240016e-03 5.369880e-02
</event>
<event>
4 7 1.0 5000.0 7.905138e-03 7.739137e-02
21 -1 0 0 103 101  0.000000e+00  0.000000e+00  3.067059e+03  3.067059e+03 0.0 0.0 9.0
 2 -1 0 0 101   0  0.000000e+00  0.000000e+00 -2.040144e+03  2.040144e+03 0.0 0.0 9.0
22  1 1 2   0   0 -1.189659e+03  5.252956e+02  2.694833e+03  2.992215e+03 0.0 0.0 9.0
 2  1 1 2 103   0  1.189659e+03 -5.252956e+02 -1.667918e+03  2.114989e+03 0.0022 0.0 9.0
#pdf 21 2 4.718553e-01 3.138684e-01 5000.0 4.131209e-03 3.040434e-02
</event>
<event>
4 7 1.0 5000.0 7.905138e-03 7.739137e-02
21 -1 0 0 103 101  0.000000e+00  0.000000e+00  2.634348e+03  2.634348e+03 0.0 0.0 9.0
 2 -1 0 0 101   0  0.000000e+00  0.000000e+00 -2.318837e+03  2.318837e+03 0.0 0.0 9.0
22  1 1 2   0   0  2.810004e+01  2.467250e+03  3.012628e+02  2.485734e+03 0.0 0.0 9.0
 2  1 1 2 103   0 -2.810004e+01 -2.467250e+03  1.424807e+01  2.467451e+03 0.0022 0.0 9.0
#pdf 21 2 4.052843e-01 3.567441e-01 5000.0 9.804141e-03 1.795201e-02
</event>
<event>
4 7 1.0 5000.0 7.905138e-03 7.739137e-02
21 -1 0 0 103 101  0.000000e+00  0.000000e+00  1.294547e+03  1.294547e+03 0.0 0.0 9.0
 2 -1 0 0 101   0  0.000000e+00  0.000000e+00 -5.000445e+03  5.000445e+03 0.0 0.0 9.0
22  1 1 2   0   0 -1.039141e+03  2.322389e+03 -1.855380e+03  3.148927e+03 0.0 0.0 9.0
 2  1 1 2 103   0  1.039141e+03 -2.322389e+03 -1.850518e+03  3.146065e+03 0.0022 0.0 9.0
#pdf 21 2 1.991610e-01 7.692992e-01 5000.0 1.271976e-01 2.309483e-05
</event>
<event>
4 7 1.0 5000.0 7.905138e-03 7.739137e-02
 2 -1 0 0 101   0  0.000000e+00  0.000000e+00  3.556760e+03  3.556760e+03 0.0 0.0 9.0
21 -1 0 0 103 101  0.000000e+00  0.000000e+00 -1.772437e+03  1.772437e+03 0.0 0.0 9.0
22  1 1 2   0   0  5.732148e+02  2.308320e+03  1.745937e+03  2.950460e+03 0.0 0.0 9.0
 2  1 1 2 103   0 -5.732148e+02 -2.308320e+03  3.838498e+01  2.378737e+03 0.0022 0.0 9.0
#pdf 2 21 5.471938e-01 2.726827e-01 5000.0 4.751905e-02 2.836989e-01
</event>
<event>
4 7 1.0 5000.0 7.905138e-03 7.739137e-02
21 -1 0 0 103 101  0.000000e+00  0.000000e+00  4.380182e+03  4.380182e+03 0.0 0.0 9.0
 2 -1 0 0 101   0  0.000000e+00  0.000000e+00 -1.077026e+03  1.077026e+03 0.0 0.0 9.0
22  1 1 2   0   0  2.086810e+03  6.004482e+02  1.711239e+03  2.764716e+03 0.0 0.0 9.0
 2  1 1 2 103   0 -2.086810e+03 -6.004482e+02  1.591917e+03  2.692492e+03 0.0022 0.0 9.0
#pdf 21 2 6.738741e-01 1.656963e-01 5000.0 1.794178e-04 1.991844e-01
</event>
<event>
4 7 1.0 5000.0 7.905138e-03 7.739137e-02
 2 -1 0 0 101   0  0.000000e+00  0.000000e+00  3.561956e+03  3.561956e+03 0.0 0.0 9.0
21 -1 0 0 103 101  0.000000e+00  0.000000e+00 -1.741955e+03  1.741955e+03 0.0 0.0 9.0
 2  1 1 2 103   0 -2.007692e+03  1.381509e+03  3.615603e+02  2.463762e+03 0.0022 0.0 9.0
22  1 1 2   0   0  2.007692e+03 -1.381509e+03  1.458441e+03  2.840149e+03 0.0 0.0 9.0
#pdf 2 21 5.479932e-01 2.679930e-01 5000.0 4.718277e-02 2.898073e-01
</event>
<event>
4 7 1.0 5000.0 7.905138e-03 7.739137e-02
21 -1 0 0 103 101  0.000000e+00  0.000000e+00  3.607592e+03  3.607592e+03 0.0 0.0 9.0
 2 -1 0 0 101   0  0.000000e+00  0.000000e+00 -1.624893e+03  1.624893e+03 0.0 0.0 9.0
22  1 1 2   0   0 -4.004011e+02 -2.353655e+03  5.565093e+02  2.451472e+03 0.0 0.0 9.0
 2  1 1 2 103   0  4.004011e+02  2.353655e+03  1.426190e+03  2.781013e+03 0.0022 0.0 9.0
#pdf 21 2 5.550141e-01 2.499835e-01 5000.0 1.284005e-03 6.675010e-02
</event>
<event>
4 7 1.0 5000.0 7.905138e-03 7.739137e-02
 2 -1 0 0 101   0  0.000000e+00  0.000000e+00  2.583144e+03  2.583144e+03 0.0 0.0 9.0
21 -1 0 0 103 101  0.000000e+00  0.000000e+00 -2.317003e+03  2.317003e+03 0.0 0.0 9.0
22  1 1 2   0   0 -2.429490e+03  2.661744e+02  2.390657e+01  2.444145e+03 0.0 0.0 9.0
 2  1 1 2 103   0  2.429490e+03 -2.661744e+02  2.422343e+02  2.456003e+03 0.0022 0.0 9.0
#pdf 2 21 3.974068e-01 3.564620e-01 5000.0 1.449096e-01 1.848308e-01
</event>
<event>
4 7 1.0 5000.0 7.905138e-03 7.739137e-02
 2 -1 0 0 101   0  0.000000e+00  0.000000e+00  3.330969e+03  3.330969e+03 0.0 0.0 9.0
21 -1 0 0 103 101  0.000000e+00  0.000000e+00 -1.897224e+03  1.897224e+03 0.0 0.0 9.0
 2  1 1 2 103   0  1.049470e+03  1.071274e+02 -1.655918e+03  1.963398e+03 0.0022 0.0 9.0
22  1 1 2   0   0 -1.049470e+03 -1.071274e+02  3.089664e+03  3.264795e+03 0.0 0.0 9.0
#pdf 2 21 5.124568e-01 2.918805e-01 5000.0 6.376912e-02 2.592401e-01
</event>
<event>
4 7 1.0 5000.0 7.905138e-03 7.739137e-02
 2 -1 0 0 101   0  0.000000e+00  0.000000e+00  2.120490e+03  2.120490e+03 0.0 0.0 9.0
21 -1 0 0 103 101  0.000000e+00  0.000000e+00 -2.972228e+03  2.972228e+03 0.0 0.0 9.0
 2  1 1 2 103   0 -2.346111e+03 -4.149765e+02  3.767243e+02  2.412128e+03 0.0022 0.0 9.0
22  1 1 2   0   0  2.346111e+03  4.149765e+02 -1.228462e+03  2.680590e+03 0.0 0.0 9.0
#pdf 2 21 3.262292e-01 4.572658e-01 5000.0 2.180333e-01 9.712400e-02
</event>
<event>
4 7 1.0 5000.0 7.905138e-03 7.739137e-02
21 -1 0 0 103 101  0.000000e+00  0.000000e+00  3.353107e+03  3.353107e+03 0.0 0.0 9.0
 2 -1 0 0 101   0  0.000000e+00  0.000000e+00 -1.758123e+03  1.758123e+03 0.0 0.0 9.0
 2  1 1 2 103   0  1.115907e+03 -2.155764e+03  7.437455e+02  2.538843e+03 0.0022 0.0 9.0
22  1 1 2   0   0 -1.115907e+03  2.155764e+03  8.512386e+02  2.572387e+03 0.0 0.0 9.0
#pdf 21 2 5.158626e-01 2.704804e-01 5000.0 2.260179e-03 5.173883e-02
</event>
<event>
4 7 1.0 5000.0 7.905138e-03 7.739137e-02
21 -1 0 0 103 101  0.000000e+00  0.000000e+00  1.408812e+03  1.408812e+03 0.0 0.0 9.0
 2 -1 0 0 101   0  0.000000e+00  0.000000e+00 -4.586388e+03  4.586388e+03 0.0 0.0 9.0
22  1 1 2   0   0 -2.352807e+02 -2.524307e+03 -1.805844e+03  3.112644e+03 0.0 0.0 9.0
 2  1 1 2 103   0  2.352807e+02  2.524307e+03 -1.371732e+03  2.882556e+03 0.0022 0.0 9.0
#pdf 21 2 2.167403e-01 7.055982e-01 5000.0 1.014234e-01 9.662434e-05
</event>
<event>
4 7 1.0 5000.0 7.905138e-03 7.739137e-02
 2 -1 0 0 101   0  0.000000e+00  0.000000e+00  1.985792e+03  1.985792e+03 0.0 0.0 9.0
21 -1 0 0 103 101  0.000000e+00  0.000000e+00 -2.820399e+03  2.820399e+03 0.0 0.0 9.0
 2  1 1 2 103   0  8.271059e+02 -2.205021e+03 -1.802391e+02  2.361929e+03 0.0022 0.0 9.0
22  1 1 2   0   0 -8.271059e+02  2.205021e+03 -6.543677e+02  2.444262e+03 0.0 0.0 9.0
#pdf 2 21 3.055065e-01 4.339075e-01 5000.0 2.424772e-01 1.142864e-01
</event>
<event>
4 7 1.0 5000.0 7.905138e-03 7.739137e-02
 2 -1 0 0 101   0  0.000000e+00  0.000000e+00  1.794981e+03  1.794981e+03 0.0 0.0 9.0
21 -1 0 0 103 101  0.000000e+00  0.000000e+00 -3.481279e+03  3.481279e+03 0.0 0.0 9.0
22  1 1 2   0   0  2.231031e+03 -1.053038e+02  3.415941e+02  2.259485e+03 0.0 0.0 9.0
 2  1 1 2 103   0 -2.231031e+03  1.053038e+02 -2.027892e+03  3.016775e+03 0.0022 0.0 9.0
#pdf 2 21 2.761509e-01 5.355814e-01 5000.0 2.792135e-01 5.257320e-02
</event>
<event>
4 7 1.0 5000.0 7.905138e-03 7.739137e-02
21 -1 0 0 103 101  0.000000e+00  0.000000e+00  3.860163e+03  3.860163e+03 0.0 0.0 9.0
 2 -1 0 0 101   0  0.000000e+00  0.000000e+00 -1.626816e+03  1.626816e+03 0.0 0.0 9.0
22  1 1 2   0   0  4.722090e+02  1.963331e+03 -5.079475e+02  2.082225e+03 0.0 0.0 9.0
 2  1 1 2 103   0 -4.722090e+02 -1.963331e+03  2.741294e+03  3.404753e+03 0.0022 0.0 9.0
#pdf 21 2 5.938712e-01 2.502793e-01 5000.0 7.073668e-04 6.650748e-02
</event>
<event>
4 7 1.0 5000.0 7.905138e-03 7.739137e-02
 2 -1 0 0 101   0  0.000000e+00  0.000000e+00  2.356708e+03  2.356708e+03 0.0 0.0 9.0
21 -1 0 0 103 101  0.000000e+00  0.000000e+00 -2.757846e+03  2.757846e+03 0.0 0.0 9.0
 2  1 1 2 103   0  7.552072e+02  1.319413e+03  1.852276e+03  2.396271e+03 0.0022 0.0 9.0
22  1 1 2   0   0 -7.552072e+02 -1.319413e+03 -2.253414e+03  2.718283e+03 0.0 0.0 9.0
#pdf 2 21 3.625705e-01 4.242840e-01 5000.0 1.784997e-01 1.218923e-01
</event>
<event>
4 7 1.0 5000.0 7.905138e-03 7.739137e-02
21 -1 0 0 103 101  0.000000e+00  0.000000e+00  2.799026e+03  2.799026e+03 0.0 0.0 9.0
 2 -1 0 0 101   0  0.000000e+00  0.000000e+00 -2.234062e+03  2.234062e+03 0.0 0.0 9.0
22  1 1 2   0   0 -2.254710e+03  3.545285e+02 -7.456761e+02  2.401134e+03 0.0 0.0 9.0
 2  1 1 2 103   0  2.254710e+03 -3.545285e+02  1.310640e+03  2.631955e+03 0.0022 0.0 9.0
#pdf 21 2 4.306194e-01 3.437019e-01 5000.0 7.094574e-03 2.108629e-02
</event>
<event>
4 7 1.0 5000.0 7.905138e-03 7.739137e-02
 2 -1 0 0 101   0  0.000000e+00  0.000000e+00  1.363318e+03  1.363318e+03 0.0 0.0 9.0
21 -1 0 0 103 101  0.000000e+00  0.000000e+00 -4.397482e+03  4.397482e+03 0.0 0.0 9.0
22  1 1 2   0   0  2.081489e+03  3.416000e+02 -2.979731e+03  3.650765e+03 0.0 0.0 9.0
 2  1 1 2 103   0 -2.081489e+03 -3.416000e+02 -5.443303e+01  2.110035e+03 0.0022 0.0 9.0
#pdf 2 21 2.097413e-01 6.765357e-01 5000.0 3.685688e-01 1.217351e-02
</event>
<event>
4 7 1.0 5000.0 7.905138e-03 7.739137e-02
21 -1 0 0 103 101  0.000000e+00  0.000000e+00  2.988929e+03  2.988929e+03 0.0 0.0 9.0
 2 -1 0 0 101   0  0.000000e+00  0.000000e+00 -2.263857e+03  2.263857e+03 0.0 0.0 9.0
 2  1 1 2 103   0 -1.309769e+03 -5.121695e+02 -1.846923e+03  2.321409e+03 0.0022 0.0 9.0
22  1 1 2   0   0  1.309769e+03  5.121695e+02  2.571996e+03  2.931378e+03 0.0 0.0 9.0
#pdf 21 2 4.598353e-01 3.482857e-01 5000.0 4.846134e-03 1.993569e-02
</event>
<event>
4 7 1.0 5000.0 7.905138e-03 7.739137e-02
21 -1 0 0 103 101  0.000000e+00  0.000000e+00  1.505036e+03  1.505036e+03 0.0 0.0 9.0
 2 -1 0 0 101   0  0.000000e+00  0.000000e+00 -3.989397e+03  3.989397e+03 0.0 0.0 9.0
22  1 1 2   0   0  7.188269e+02 -2.082726e+03 -4.001730e+01  2.203647e+03 0.0 0.0 9.0
 2  1 1 2 103   0 -7.188269e+02  2.082726e+03 -2.444343e+03  3.290786e+03 0.0022 0.0 9.0
#pdf 21 2 2.315441e-01 6.137533e-01 5000.0 8.400253e-02 5.136265e-04
</event>
<event>
4 7 1.0 5000.0 7.905138e-03 7.739137e-02
21 -1 0 0 103 101  0.000000e+00  0.000000e+00  2.202780e+03  2.202780e+03 0.0 0.0 9.0
 2 -1 0 0 101   0  0.000000e+00  0.000000e+00 -2.843198e+03  2.843198e+03 0.0 0.0 9.0
22  1 1 2   0   0  1.489753e+03 -1.852409e+02 -2.338847e+03  2.779187e+03 0.0 0.0 9.0
 2  1 1 2 103   0 -1.489753e+03  1.852409e+02  1.698429e+03  2.266790e+03 0.0022 0.0 9.0
#pdf 21 2 3.388892e-01 4.374150e-01 5000.0 2.236530e-02 6.504221e-03
</event>
<event>
4 7 1.0 5000.0 7.905138e-03 7.739137e-02
 2 -1 0 0 101   0  0.000000e+00  0.000000e+00  3.764855e+03  3.764855e+03 0.0 0.0 9.0
21 -1 0 0 103 101  0.000000e+00  0.000000e+00 -1.699441e+03  1.699441e+03 0.0 0.0 9.0
 2  1 1 2 103   0 -1.239192e+03  4.178187e+02  3.371382e+03  3.616129e+03 0.0022 0.0 9.0
22  1 1 2   0   0  1.239192e+03 -4.178187e+02 -1.305968e+03  1.848168e+03 0.0 0.0 9.0
#pdf 2 21 5.792085e-01 2.614525e-01 5000.0 3.540296e-02 2.983900e-01
</event>
<event>
4 7 1.0 5000.0 7.905138e-03 7.739137e-02
 2 -1 0 0 101   0  0.000000e+00  0.000000e+00  2.176328e+03  2.176328e+03 0.0 0.0 9.0
21 -1 0 0 103 101  0.000000e+00  0.000000e+00 -2.885620e+03  2.885620e+03 0.0 0.0 9.0
22  1 1 2   0   0 -6.873024e+02  2.167846e+03 -1.417804e+03  2.679946e+03 0.0 0.0 9.0
 2  1 1 2 103   0  6.873024e+02 -2.167846e+03  7.085123e+02  2.382002e+03 0.0022 0.0 9.0
#pdf 2 21 3.348197e-01 4.439415e-01 5000.0 2.082876e-01 1.066818e-01
</event>
<event>
4 7 1.0 5000.0 7.905138e-03 7.739137e-02
21 -1 0 0 103 101  0.000000e+00  0.000000e+00  1.880473e+03  1.880473e+03 0.0 0.0 9.0
 2 -1 0 0 101   0  0.000000e+00  0.000000e+00 -3.591123e+03  3.591123e+03 0.0 0.0 9.0
22  1 1 2   0   0 -3.495829e+02 -1.890788e+03  9.849898e+02  2.160438e+03 0.0 0.0 9.0
 2  1 1 2 103   0  3.495829e+02  1.890788e+03 -2.695640e+03  3.311158e+03 0.0022 0.0 9.0
#pdf 21 2 2.893035e-01 5.524805e-01 5000.0 4.108411e-02 1.331902e-03
</event>
<event>
4 7 1.0 5000.0 7.905138e-03 7.739137e-02
21 -1 0 0 103 101  0.000000e+00  0.000000e+00  2.410766e+03  2.410766e+03 0.0 0.0 9.0
 2 -1 0 0 101   0  0.000000e+00  0.000000e+00 -1.809856e+03  1.809856e+03 0.0 0.0 9.0
22  1 1 2   0   0  1.692199e+03  7.612282e+02  1.269564e+03  2.248288e+03 0.0 0.0 9.0
 2  1 1 2 103   0 -1.692199e+03 -7.612282e+02 -6.686538e+02  1.972334e+03 0.0022 0.0 9.0
#pdf 21 2 3.708871e-01 2.784394e-01 5000.0 1.506945e-02 4.691769e-02
</event>
<event>
4 7 1.0 5000.0 7.905138e-03 7.739137e-02
21 -1 0 0 103 101  0.000000e+00  0.000000e+00  2.491578e+03  2.491578e+03 0.0 0.0 9.0
 2 -1 0 0 101   0  0.000000e+00  0.000000e+00 -2.504861e+03  2.504861e+03 0.0 0.0 9.0
 2  1 1 2 103   0 -2.130394e+03 -1.219175e+03 -4.715016e+02  2.499456e+03 0.0022 0.0 9.0
22  1 1 2   0   0  2.130394e+03  1.219175e+03  4.582188e+02  2.496984e+03 0.0 0.0 9.0
#pdf 21 2 3.833198e-01 3.853633e-01 5000.0 1.292722e-02 1.259900e-02
</event>
<event>
4 7 1.0 5000.0 7.905138e-03 7.739137e-02
21 -1 0 0 103 101  0.000000e+00  0.000000e+00  2.494020e+03  2.494020e+03 0.0 0.0 9.0
 2 -1 0 0 101   0  0.000000e+00  0.000000e+00 -2.549843e+03  2.549843e+03 0.0 0.0 9.0
22  1 1 2   0   0 -2.059618e+03  8.211414e+02  1.173437e+03  2.508635e+03 0.0 0.0 9.0
 2  1 1 2 103   0  2.059618e+03 -8.211414e+02 -1.229260e+03  2.535227e+03 0.0022 0.0 9.0
#pdf 21 2 3.836954e-01 3.922835e-01 5000.0 1.286633e-02 1.154691e-02
</event>
<event>
4 7 1.0 5000.0 7.905138e-03 7.739137e-02
 2 -1 0 0 101   0  0.000000e+00  0.000000e+00  3.157705e+03  3.157705e+03 0.0 0.0 9.0
21 -1 0 0 103 101  0.000000e+00  0.000000e+00 -2.972070e+03  2.972070e+03 0.0 0.0 9.0
 2  1 1 2 103   0  2.560974e+03  1.199768e+03  1.271022e+03  3.100569e+03 0.0022 0.0 9.0
22  1 1 2   0   0 -2.560974e+03 -1.199768e+03 -1.085386e+03  3.029207e+03 0.0 0.0 9.0
#pdf 2 21 4.858008e-01 4.572415e-01 5000.0 7.866114e-02 9.714092e-02
</event>
<event>
4 7 1.0 5000.0 7.905138e-03 7.739137e-02
 2 -1 0 0 101   0  0.000000e+00  0.000000e+00  1.047980e+03  1.047980e+03 0.0 0.0 9.0
21 -1 0 0 103 101  0.000000e+00  0.000000e+00 -4.196086e+03  4.196086e+03 0.0 0.0 9.0
 2  1 1 2 103   0  1.284954e+03 -1.649859e+03 -1.768862e+03  2.738981e+03 0.0022 0.0 9.0
22  1 1 2   0   0 -1.284954e+03  1.649859e+03 -1.379244e+03  2.505086e+03 0.0 0.0 9.0
#pdf 2 21 1.612278e-01 6.455518e-01 5000.0 4.349564e-01 1.767570e-02
</event>
<event>
4 7 1.0 5000.0 7.905138e-03 7.739137e-02
 2 -1 0 0 101   0  0.000000e+00  0.000000e+00  2.571962e+03  2.571962e+03 0.0 0.0 9.0
21 -1 0 0 103 101  0.000000e+00  0.000000e+00 -2.984331e+03  2.984331e+03 0.0 0.0 9.0
 2  1 1 2 103   0 -3.872979e+02 -3.052773e+02 -2.939966e+03  2.981039e+03 0.0022 0.0 9.0
22  1 1 2   0   0  3.872979e+02  3.052773e+02  2.527597e+03  2.575255e+03 0.0 0.0 9.0
#pdf 2 21 3.956865e-01 4.591279e-01 5000.0 1.464700e-01 9.583361e-02
</event>
<event>
4 7 1.0 5000.0 7.905138e-03 7.739137e-02
21 -1 0 0 103 101  0.000000e+00  0.000000e+00  1.731567e+03  1.731567e+03 0.0 0.0 9.0
 2 -1 0 0 101   0  0.000000e+00  0.000000e+00 -3.844736e+03  3.844736e+03 0.0 0.0 9.0
 2  1 1 2 103   0 -6.872287e+02 -1.812947e+03 -2.896253e+03  3.485303e+03 0.0022 0.0 9.0
22  1 1 2   0   0  6.872287e+02  1.812947e+03  7.830844e+02  2.091000e+03 0.0 0.0 9.0
#pdf 21 2 2.663950e-01 5.914978e-01 5000.0 5.440940e-02 7.344452e-04
</event>
<event>
4 7 1.0 5000.0 7.905138e-03 7.739137e-02
21 -1 0 0 103 101  0.000000e+00  0.000000e+00  1.534680e+03  1.534680e+03 0.0 0.0 9.0
 2 -1 0 0 101   0  0.000000e+00  0.000000e+00 -4.000496e+03  4.000496e+03 0.0 0.0 9.0
22  1 1 2   0   0  5.183688e+01  1.277379e+03 -3.603669e+03  3.823718e+03 0.0 0.0 9.0
 2  1 1 2 103   0 -5.183688e+01 -1.277379e+03  1.137853e+03  1.711459e+03 0.0022 0.0 9.0
#pdf 21 2 2.361047e-01 6.154610e-01 5000.0 7.937590e-02 4.994313e-04
</event>
<event>
4 7 1.0 5000.0 7.905138e-03 7.739137e-02
21 -1 0 0 103 101  0.000000e+00  0.000000e+00  4.918282e+03  4.918282e+03 0.0 0.0 9.0
 2 -1 0 0 101   0  0.000000e+00  0.000000e+00 -1.140486e+03  1.140486e+03 0.0 0.0 9.0
 2  1 1 2 103   0 -7.352168e+02  2.181859e+03  1.178820e+03  2.586632e+03 0.0022 0.0 9.0
22  1 1 2   0   0  7.352168e+02 -2.181859e+03  2.598977e+03  3.472136e+03 0.0 0.0 9.0
#pdf 21 2 7.566588e-01 1.754594e-01 5000.0 3.141053e-05 1.743733e-01
</event>
<event>
4 7 1.0 5000.0 7.905138e-03 7.739137e-02
 2 -1 0 0 101   0  0.000000e+00  0.000000e+00  3.208703e+03  3.208703e+03 0.0 0.0 9.0
21 -1 0 0 103 101  0.000000e+00  0.000000e+00 -1.915382e+03  1.915382e+03 0.0 0.0 9.0
 2  1 1 2 103   0  1.944399e+02  1.421778e+03 -1.442524e+03  2.034732e+03 0.0022 0.0 9.0
22  1 1 2   0   0 -1.944399e+02 -1.421778e+03  2.735844e+03  3.089353e+03 0.0 0.0 9.0
#pdf 2 21 4.936466e-01 2.946742e-01 5000.0 7.404789e-02 2.557583e-01
</event>
<event>
4 7 1.0 5000.0 7.905138e-03 7.739137e-02
 2 -1 0 0 101   0  0.000000e+00  0.000000e+00  1.981117e+03  1.981117e+03 0.0 0.0 9.0
21 -1 0 0 103 101  0.000000e+00  0.000000e+00 -3.154684e+03  3.154684e+03 0.0 0.0 9.0
 2  1 1 2 103   0  2.289023e+03 -9.919421e+02 -4.204506e+02  2.529892e+03 0.0022 0.0 9.0
22  1 1 2   0   0 -2.289023e+03  9.919421e+02 -7.531166e+02  2.605908e+03 0.0 0.0 9.0
#pdf 2 21 3.047872e-01 4.853360e-01 5000.0 2.433501e-01 7.894058e-02
</event>
<event>
4 7 1.0 5000.0 7.905138e-03 7.739137e-02
21 -1 0 0 103 101  0.000000e+00  0.000000e+00  3.938833e+03  3.938833e+03 0.0 0.0 9.0
 2 -1 0 0 101   0  0.000000e+00  0.000000e+00 -1.597968e+03  1.597968e+03 0.0 0.0 9.0
 2  1 1 2 103   0 -1.560313e+03 -1.153745e+03  2.925066e+03  3.510230e+03 0.0022 0.0 9.0
22  1 1 2   0   0  1.560313e+03  1.153745e+03 -5.842004e+02  2.026572e+03 0.0 0.0 9.0
#pdf 21 2 6.059744e-01 2.458412e-01 5000.0 5.832641e-04 7.020182e-02
</event>
<event>
4 7 1.0 5000.0 7.905138e-03 7.739137e-02
 2 -1 0 0 101   0  0.000000e+00  0.000000e+00  4.106636e+03  4.106636e+03 0.0 0.0 9.0
21 -1 0 0 103 101  0.000000e+00  0.000000e+00 -1.544558e+03  1.544558e+03 0.0 0.0 9.0
 2  1 1 2 103   0 -1.388121e+03  7.669966e+00 -1.076612e+03  1.756710e+03 0.0022 0.0 9.0
22  1 1 2   0   0  1.388121e+03 -7.669966e+00  3.638690e+03  3.894484e+03 0.0 0.0 9.0
#pdf 2 21 6.317902e-01 2.376243e-01 5000.0 2.063643e-02 3.302943e-01
</event>
<event>
4 7 1.0 5000.0 7.905138e-03 7.739137e-02
21 -1 0 0 103 101  0.000000e+00  0.000000e+00  1.975053e+03  1.975053e+03 0.0 0.0 9.0
 2 -1 0 0 101   0  0.000000e+00  0.000000e+00 -3.262969e+03  3.262969e+03 0.0 0.0 9.0
 2  1 1 2 103   0  1.173327e+03 -1.745209e+03 -2.110996e+03  2.979724e+03 0.0022 0.0 9.0
22  1 1 2   0   0 -1.173327e+03  1.745209e+03  8.230799e+02  2.258298e+03 0.0 0.0 9.0
#pdf 21 2 3.038543e-01 5.019952e-01 5000.0 3.438546e-02 2.741500e-03
</event>
<event>
4 7 1.0 5000.0 7.905138e-03 7.739137e-02
21 -1 0 0 103 101  0.000000e+00  0.000000e+00  3.024175e+03  3.024175e+03 0.0 0.0 9.0
 2 -1 0 0 101   0  0.000000e+00  0.000000e+00 -1.979737e+03  1.979737e+03 0.0 0.0 9.0
 2  1 1 2 103   0  1.032316e+02 -2.421514e+03  1.789769e+02  2.430313e+03 0.0022 0.0 9.0
22  1 1 2   0   0 -1.032316e+02  2.421514e+03  8.654614e+02  2.573599e+03 0.0 0.0 9.0
#pdf 21 2 4.652577e-01 3.045749e-01 5000.0 4.510081e-03 3.408729e-02
</event>
<event>
4 7 1.0 5000.0 7.905138e-03 7.739137e-02
 2 -1 0 0 101   0  0.000000e+00  0.000000e+00  2.284807e+03  2.284807e+03 0.0 0.0 9.0
21 -1 0 0 103 101  0.000000e+00  0.000000e+00 -2.751674e+03  2.751674e+03 0.0 0.0 9.0
22  1 1 2   0   0  1.578140e+03  1.510023e+03  1.003293e+03  2.403600e+03 0.0 0.0 9.0
 2  1 1 2 103   0 -1.578140e+03 -1.510023e+03 -1.470159e+03  2.632881e+03 0.0022 0.0 9.0
#pdf 2 21 3.515088e-01 4.233344e-01 5000.0 1.900585e-01 1.226617e-01
</event>
<event>
4 7 1.0 5000.0 7.905138e-03 7.739137e-02
 2 -1 0 0 101   0  0.000000e+00  0.000000e+00  3.058531e+03  3.058531e+03 0.0 0.0 9.0
21 -1 0 0 103 101  0.000000e+00  0.000000e+00 -1.876281e+03  1.876281e+03 0.0 0.0 9.0
 2  1 1 2 103   0  1.896480e+03  1.169590e+03  1.497339e+03  2.684511e+03 0.0022 0.0 9.0
22  1 1 2   0   0 -1.896480e+03 -1.169590e+03 -3.150893e+02  2.250301e+03 0.0 0.0 9.0
#pdf 2 21 4.705432e-01 2.886587e-01 5000.0 8.820215e-02 2.632857e-01
</event>
<event>
4 7 1.0 5000.0 7.905138e-03 7.739137e-02
21 -1 0 0 103 101  0.000000e+00  0.000000e+00  3.699968e+03  3.699968e+03 0.0 0.0 9.0
 2 -1 0 0 101   0  0.000000e+00  0.000000e+00 -1.509222e+03  1.509222e+03 0.0 0.0 9.0
 2  1 1 2 103   0  1.591564e+03 -1.060999e+03  2.624739e+03  3.247776e+03 0.0022 0.0 9.0
22  1 1 2   0   0 -1.591564e+03  1.060999e+03 -4.339925e+02  1.961414e+03 0.0 0.0 9.0
#pdf 21 2 5.692258e-01 2.321879e-01 5000.0 1.037152e-03 8.333123e-02
</event>
<event>
4 7 1.0 5000.0 7.905138e-03 7.739137e-02
21 -1 0 0 103 101  0.000000e+00  0.000000e+00  2.459115e+03  2.459115e+03 0.0 0.0 9.0
 2 -1 0 0 101   0  0.000000e+00  0.000000e+00 -2.528194e+03  2.528194e+03 0.0 0.0 9.0
22  1 1 2   0   0 -1.569447e+03 -8.076787e+02 -1.795848e+03  2.518050e+03 0.0 0.0 9.0
 2  1 1 2 103   0  1.569447e+03  8.076787e+02  1.726768e+03  2.469259e+03 0.0022 0.0 9.0
#pdf 21 2 3.783253e-01 3.889530e-01 5000.0 1.375924e-02 1.204136e-02
</event>
<event>
4 7 1.0 5000.0 7.905138e-03 7.739137e-02
21 -1 0 0 103 101  0.000000e+00  0.000000e+00  2.471638e+03  2.471638e+03 0.0 0.0 9.0
 2 -1 0 0 101   0  0.000000e+00  0.000000e+00 -2.528717e+03  2.528717e+03 0.0 0.0 9.0
22  1 1 2   0   0 -7.467466e+02  2.354872e+03 -4.119986e+02  2.504555e+03 0.0 0.0 9.0
 2  1 1 2 103   0  7.467466e+02 -2.354872e+03  3.549188e+02  2.495800e+03 0.0022 0.0 9.0
#pdf 21 2 3.802519e-01 3.890335e-01 5000.0 1.343353e-02 1.202915e-02
</event>
<event>
4 7 1.0 5000.0 7.905138e-03 7.739137e-02
21 -1 0 0 103 101  0.000000e+00  0.000000e+00  1.729121e+03  1.729121e+03 0.0 0.0 9.0
 2 -1 0 0 101   0  0.000000e+00  0.000000e+00 -3.252437e+03  3.252437e+03 0.0 0.0 9.0
 2  1 1 2 103   0 -8.210018e+02 -9.141586e+02  1.368721e+03  1.839328e+03 0.0022 0.0 9.0
22  1 1 2   0   0  8.210018e+02  9.141586e+02 -2.892037e+03  3.142229e+03 0.0 0.0 9.0
#pdf 21 2 2.660186e-01 5.003749e-01 5000.0 5.466285e-02 2.803746e-03
</event>
<event>
4 7 1.0 5000.0 7.905138e-03 7.739137e-02
21 -1 0 0 103 101  0.000000e+00  0.000000e+00  1.568707e+03  1.568707e+03 0.0 0.0 9.0
 2 -1 0 0 101   0  0.000000e+00  0.000000e+00 -4.003899e+03  4.003899e+03 0.0 0.0 9.0
 2  1 1 2 103   0 -6.420633e+02 -6.454170e+02 -3.813564e+03  3.920724e+03 0.0022 0.0 9.0
22  1 1 2   0   0  6.420633e+02  6.454170e+02  1.378371e+03  1.651883e+03 0.0 0.0 9.0
#pdf 21 2 2.413396e-01 6.159845e-01 5000.0 7.435466e-02 4.951532e-04
</event>
<event>
4 7 1.0 5000.0 7.905138e-03 7.739137e-02
21 -1 0 0 103 101  0.000000e+00  0.000000e+00  2.866750e+03  2.866750e+03 0.0 0.0 9.0
 2 -1 0 0 101   0  0.000000e+00  0.000000e+00 -2.239935e+03  2.239935e+03 0.0 0.0 9.0
22  1 1 2   0   0 -1.158588e+03  2.378779e+02  2.571559e+03  2.830517e+03 0.0 0.0 9.0
 2  1 1 2 103   0  1.158588e+03 -2.378779e+02 -1.944744e+03  2.276168e+03 0.0022 0.0 9.0
#pdf 21 2 4.410385e-01 3.446054e-01 5000.0 6.205935e-03 2.085469e-02
</event>
<event>
4 7 1.0 5000.0 7.905138e-03 7.739137e-02
 2 -1 0 0 101   0  0.000000e+00  0.000000e+00  1.982063e+03  1.982063e+03 0.0 0.0 9.0
21 -1 0 0 103 101  0.000000e+00  0.000000e+00 -3.069317e+03  3.069317e+03 0.0 0.0 9.0
 2  1 1 2 103   0  1.197441e+03  2.972298e+02 -2.730623e+03  2.996417e+03 0.0022 0.0 9.0
22  1 1 2   0   0 -1.197441e+03 -2.972298e+02  1.643370e+03  2.054963e+03 0.0 0.0 9.0
#pdf 2 21 3.049328e-01 4.722025e-01 5000.0 2.431732e-01 8.712743e-02
</event>
<event>
4 7 1.0 5000.0 7.905138e-03 7.739137e-02
 2 -1 0 0 101   0  0.000000e+00  0.000000e+00  4.126516e+03  4.126516e+03 0.0 0.0 9.0
21 -1 0 0 103 101  0.000000e+00  0.000000e+00 -1.502168e+03  1.502168e+03 0.0 0.0 9.0
 2  1 1 2 103   0 -5.580682e+02 -1.259661e+03  3.656333e+03  3.907295e+03 0.0022 0.0 9.0
22  1 1 2   0   0  5.580682e+02  1.259661e+03 -1.031985e+03  1.721388e+03 0.0 0.0 9.0
#pdf 2 21 6.348486e-01 2.311027e-01 5000.0 1.994906e-02 3.392174e-01
</event>
<event>
4 7 1.0 5000.0 7.905138e-03 7.739137e-02
 2 -1 0 0 101   0  0.000000e+00  0.000000e+00  1.755322e+03  1.755322e+03 0.0 0.0 9.0
21 -1 0 0 103 101  0.000000e+00  0.000000e+00 -3.450810e+03  3.450810e+03 0.0 0.0 9.0
22  1 1 2   0   0 -1.582582e+01  1.293110e+03  1.367013e+03  1.881783e+03 0.0 0.0 9.0
 2  1 1 2 103   0  1.582582e+01 -1.293110e+03 -3.062501e+03  3.324349e+03 0.0022 0.0 9.0
#pdf 2 21 2.700495e-01 5.308939e-01 5000.0 2.871231e-01 5.472580e-02
</event>
<event>
4 7 1.0 5000.0 7.905138e-03 7.739137e-02
 2 -1 0 0 101   0  0.000000e+00  0.000000e+00  1.140656e+03  1.140656e+03 0.0 0.0 9.0
21 -1 0 0 103 101  0.000000e+00  0.000000e+00 -5.450764e+03  5.450764e+03 0.0 0.0 9.0
22  1 1 2   0   0  1.518047e+03 -7.500143e+02 -4.574384e+03  4.877702e+03 0.0 0.0 9.0
 2  1 1 2 103   0 -1.518047e+03  7.500143e+02  2.642758e+02  1.713718e+03 0.0022 0.0 9.0
#pdf 2 21 1.754855e-01 8.385791e-01 5000.0 4.156374e-01 7.085144e-04
</event>
<event>
4 7 1.0 5000.0 7.905138e-03 7.739137e-02
21 -1 0 0 103 101  0.000000e+00  0.000000e+00  4.422528e+03  4.422528e+03 0.0 0.0 9.0
 2 -1 0 0 101   0  0.000000e+00  0.000000e+00 -1.440801e+03  1.440801e+03 0.0 0.0 9.0
22  1 1 2   0   0  2.122100e+03 -1.144137e+03  6.220521e+02  2.489841e+03 0.0 0.0 9.0
 2  1 1 2 103   0 -2.122100e+03  1.144137e+03  2.359675e+03  3.373488e+03 0.0022 0.0 9.0
#pdf 21 2 6.803890e-01 2.216617e-01 5000.0 1.585536e-04 9.522762e-02
</event>
<event>
4 7 1.0 5000.0 7.905138e-03 7.739137e-02
21 -1 0 0 103 101  0.000000e+00  0.000000e+00  3.453821e+03  3.453821e+03 0.0 0.0 9.0
 2 -1 0 0 101   0  0.000000e+00  0.000000e+00 -1.916348e+03  1.916348e+03 0.0 0.0 9.0
22  1 1 2   0   0  2.181833e+03 -1.181822e+03  1.477850e+03  2.888103e+03 0.0 0.0 9.0
 2  1 1 2 103   0 -2.181833e+03  1.181822e+03  5.962244e+01  2.482066e+03 0.0022 0.0 9.0
#pdf 21 2 5.313570e-01 2.948228e-01 5000.0 1.814429e-03 3.841659e-02
</event>
<event>
4 7 1.0 5000.0 7.905138e-03 7.739137e-02
21 -1 0 0 103 101  0.000000e+00  0.000000e+00  2.752245e+03  2.752245e+03 0.0 0.0 9.0
 2 -1 0 0 101   0  0.000000e+00  0.000000e+00 -2.085140e+03  2.085140e+03 0.0 0.0 9.0
 2  1 1 2 103   0  1.237360e+03 -1.608654e+03 -9.515127e+02  2.241474e+03 0.0022 0.0 9.0
22  1 1 2   0   0 -1.237360e+03  1.608654e+03  1.618618e+03  2.595911e+03 0.0 0.0 9.0
#pdf 21 2 4.234223e-01 3.207907e-01 5000.0 7.782265e-03 2.792115e-02
</event>
<event>
4 7 1.0 5000.0 7.905138e-03 7.739137e-02
 2 -1 0 0 101   0  0.000000e+00  0.000000e+00  2.155872e+03  2.155872e+03 0.0 0.0 9.0
21 -1 0 0 103 101  0.000000e+00  0.000000e+00 -2.904193e+03  2.904193e+03 0.0 0.0 9.0
22  1 1 2   0   0 -1.591037e+03  3.568249e+02  1.544926e+03  2.246223e+03 0.0 0.0 9.0
 2  1 1 2 103   0  1.591037e+03 -3.568249e+02 -2.293247e+03  2.813842e+03 0.0022 0.0 9.0
#pdf 2 21 3.316726e-01 4.467989e-01 5000.0 2.118281e-01 1.045703e-01
</event>
<event>
4 7 1.0 5000.0 7.905138e-03 7.739137e-02
 2 -1 0 0 101   0  0.000000e+00  0.000000e+00  1.945394e+03  1.945394e+03 0.0 0.0 9.0
21 -1 0 0 103 101  0.000000e+00  0.000000e+00 -3.219567e+03  3.219567e+03 0.0 0.0 9.0
 2  1 1 2 103   0  1.930842e+03  1.529820e+03 -1.092560e+03  2.694844e+03 0.0022 0.0 9.0
22  1 1 2   0   0 -1.930842e+03 -1.529820e+03 -1.816130e+02  2.470118e+03 0.0 0.0 9.0
#pdf 2 21 2.992914e-01 4.953180e-01 5000.0 2.500678e-01 7.309019e-02
</event>
<event>
4 7 1.0 5000.0 7.905138e-03 7.739137e-02
21 -1 0 0 103 101  0.000000e+00  0.000000e+00  2.521279e+03  2.521279e+03 0.0 0.0 9.0
 2 -1 0 0 101   0  0.000000e+00  0.000000e+00 -2.440300e+03  2.440300e+03 0.0 0.0 9.0
 2  1 1 2 103   0 -2.070503e+03 -5.650983e+02 -1.203202e+03  2.460491e+03 0.0022 0.0 9.0
22  1 1 2   0   0  2.070503e+03  5.650983e+02  1.284181e+03  2.501088e+03 0.0 0.0 9.0
#pdf 21 2 3.878891e-01 3.754307e-01 5000.0 1.220402e-02 1.425890e-02
</event>
<event>
4 7 1.0 5000.0 7.905138e-03 7.739137e-02
 2 -1 0 0 101   0  0.000000e+00  0.000000e+00  2.767165e+03  2.767165e+03 0.0 0.0 9.0
21 -1 0 0 103 101  0.000000e+00  0.000000e+00 -2.210965e+03  2.210965e+03 0.0 0.0 9.0
 2  1 1 2 103   0 -1.348211e+03 -1.288880e+03  1.912903e+03  2.671719e+03 0.0022 0.0 9.0
22  1 1 2   0   0  1.348211e+03  1.288880e+03 -1.356703e+03  2.306410e+03 0.0 0.0 9.0
#pdf 2 21 4.257176e-01 3.401484e-01 5000.0 1.207369e-01 2.023704e-01
</event>
<event>
4 7 1.0 5000.0 7.905138e-03 7.739137e-02
 2 -1 0 0 101   0  0.000000e+00  0.000000e+00  2.782399e+03  2.782399e+03 0.0 0.0 9.0
21 -1 0 0 103 101  0.000000e+00  0.000000e+00 -2.252053e+03  2.252053e+03 0.0 0.0 9.0
 2  1 1 2 103   0  2.321733e+03 -6.119766e+02  9.770544e+02  2.592218e+03 0.0022 0.0 9.0
22  1 1 2   0   0 -2.321733e+03  6.119766e+02 -4.467089e+02  2.442234e+03 0.0 0.0 9.0
#pdf 2 21 4.280614e-01 3.464697e-01 5000.0 1.188648e-01 1.954662e-01
</event>
<event>
4 7 1.0 5000.0 7.905138e-03 7.739137e-02
 2 -1 0 0 101   0  0.000000e+00  0.000000e+00  2.073641e+03  2.073641e+03 0.0 0.0 9.0
21 -1 0 0 103 101  0.000000e+00  0.000000e+00 -3.006889e+03  3.006889e+03 0.0 0.0 9.0
22  1 1 2   0   0  9.944755e+02 -4.478454e+02  1.818515e+03  2.120506e+03 0.0 0.0 9.0
 2  1 1 2 103   0 -9.944755e+02  4.478454e+02 -2.751763e+03  2.960025e+03 0.0022 0.0 9.0
#pdf 2 21 3.190217e-01 4.625983e-01 5000.0 2.263912e-01 9.346496e-02
</event>
<event>
4 7 1.0 5000.0 7.905138e-03 7.739137e-02
 2 -1 0 0 101   0  0.000000e+00  0.000000e+00  5.139968e+03  5.139968e+03 0.0 0.0 9.0
21 -1 0 0 103 101  0.000000e+00  0.000000e+00 -1.454622e+03  1.454622e+03 0.0 0.0 9.0
22  1 1 2   0   0 -7.543342e+02 -2.010924e+03 -1.980294e+02  2.156861e+03 0.0 0.0 9.0
 2  1 1 2 103   0  7.543342e+02  2.010924e+03  3.883376e+03  4.437729e+03 0.0022 0.0 9.0
#pdf 2 21 7.907644e-01 2.237880e-01 5000.0 2.045379e-03 3.492269e-01
</event>
<event>
4 7 1.0 5000.0 7.905138e-03 7.739137e-02
21 -1 0 0 103 101  0.000000e+00  0.000000e+00  2.396780e+03  2.396780e+03 0.0 0.0 9.0
 2 -1 0 0 101   0  0.000000e+00  0.000000e+00 -2.506716e+03  2.506716e+03 0.0 0.0 9.0
22  1 1 2   0   0  1.484048e+03 -1.928045e+03 -3.521793e+02  2.458411e+03 0.0 0.0 9.0
 2  1 1 2 103   0 -1.484048e+03  1.928045e+03  2.422427e+02  2.445085e+03 0.0022 0.0 9.0
#pdf 21 2 3.687353e-01 3.856487e-01 5000.0 1.547829e-02 1.255377e-02
</event>
<event>
4 7 1.0 5000.0 7.905138e-03 7.739137e-02
 2 -1 0 0 101   0  0.000000e+00  0.000000e+00  5.140998e+03  5.140998e+03 0.0 0.0 9.0
21 -1 0 0 103 101  0.000000e+00  0.000000e+00 -1.320996e+03  1.320996e+03 0.0 0.0 9.0
 2  1 1 2 103   0 -9.730180e+02  2.173553e+02  4.895194e+03  4.995691e+03 0.0022 0.0 9.0
22  1 1 2   0   0  9.730180e+02 -2.173553e+02 -1.075191e+03  1.466303e+03 0.0 0.0 9.0
#pdf 2 21 7.909228e-01 2.032301e-01 5000.0 2.039021e-03 3.775820e-01
</event>
<event>
4 7 1.0 5000.0 7.905138e-03 7.739137e-02
 2 -1 0 0 101   0  0.000000e+00  0.000000e+00  3.589082e+03  3.589082e+03 0.0 0.0 9.0
21 -1 0 0 103 101  0.000000e+00  0.000000e+00 -1.738374e+03  1.738374e+03 0.0 0.0 9.0
 2  1 1 2 103   0  7.366407e+02 -3.062792e+02 -1.598860e+03  1.786840e+03 0.0022 0.0 9.0
22  1 1 2   0   0 -7.366407e+02  3.062792e+02  3.449567e+03  3.540616e+03 0.0 0.0 9.0
#pdf 2 21 5.521664e-01 2.674422e-01 5000.0 4.545678e-02 2.905276e-01
</event>
<event>
4 7 1.0 5000.0 7.905138e-03 7.739137e-02
21 -1 0 0 103 101  0.000000e+00  0.000000e+00  2.767617e+03  2.767617e+03 0.0 0.0 9.0
 2 -1 0 0 101   0  0.000000e+00  0.000000e+00 -2.143907e+03  2.143907e+03 0.0 0.0 9.0
22  1 1 2   0   0  1.792277e+02 -4.527489e+02  2.718051e+03  2.761323e+03 0.0 0.0 9.0
 2  1 1 2 103   0 -1.792277e+02  4.527489e+02 -2.094341e+03  2.150202e+03 0.0022 0.0 9.0
#pdf 21 2 4.257873e-01 3.298319e-01 5000.0 7.549344e-03 2.499766e-02
</event>
<event>
4 7 1.0 5000.0 7.905138e-03 7.739137e-02
 2 -1 0 0 101   0  0.000000e+00  0.000000e+00  2.001724e+03  2.001724e+03 0.0 0.0 9.0
21 -1 0 0 103 101  0.000000e+00  0.000000e+00 -3.055099e+03  3.055099e+03 0.0 0.0 9.0
 2  1 1 2 103   0  2.242458e+03 -9.588456e+01 -1.588071e+03  2.749506e+03 0.0022 0.0 9.0
22  1 1 2   0   0 -2.242458e+03  9.588456e+01  5.346963e+02  2.307317e+03 0.0 0.0 9.0
#pdf 2 21 3.079576e-01 4.700152e-01 5000.0 2.395162e-01 8.854597e-02
</event>
<event>
4 7 1.0 5000.0 7.905138e-03 7.739137e-02
21 -1 0 0 103 101  0.000000e+00  0.000000e+00  2.075025e+03  2.075025e+03 0.0 0.0 9.0
 2 -1 0 0 101   0  0.000000e+00  0.000000e+00 -3.049426e+03  3.049426e+03 0.0 0.0 9.0
22  1 1 2   0   0 -1.530304e+03  1.076794e+03  1.225208e+03  2.236616e+03 0.0 0.0 9.0
 2  1 1 2 103   0  1.530304e+03 -1.076794e+03 -2.199608e+03  2.887835e+03 0.0022 0.0 9.0
#pdf 21 2 3.192347e-01 4.691424e-01 5000.0 2.845859e-02 4.283440e-03
</event>
<event>
4 7 1.0 5000.0 7.905138e-03 7.739137e-02
 2 -1 0 0 101   0  0.000000e+00  0.000000e+00  1.896794e+03  1.896794e+03 0.0 0.0 9.0
21 -1 0 0 103 101  0.000000e+00  0.000000e+00 -3.308342e+03  3.308342e+03 0.0 0.0 9.0
 2  1 1 2 103   0 -1.465828e+03 -2.219679e+02 -2.803623e+03  3.171470e+03 0.0022 0.0 9.0
22  1 1 2   0   0  1.465828e+03  2.219679e+02  1.392075e+03  2.033666e+03 0.0 0.0 9.0
#pdf 2 21 2.918145e-01 5.089757e-01 5000.0 2.593227e-01 6.559020e-02
</event>
<event>
4 7 1.0 5000.0 7.905138e-03 7.739137e-02
21 -1 0 0 103 101  0.000000e+00  0.000000e+00  2.022162e+03  2.022162e+03 0.0 0.0 9.0
 2 -1 0 0 101   0  0.000000e+00  0.000000e+00 -3.044694e+03  3.044694e+03 0.0 0.0 9.0
 2  1 1 2 103   0  6.089944e+02  1.100162e+02  1.942103e+03  2.038318e+03 0.0022 0.0 9.0
22  1 1 2   0   0 -6.089944e+02 -1.100162e+02 -2.964635e+03  3.028538e+03 0.0 0.0 9.0
#pdf 21 2 3.111018e-01 4.684145e-01 5000.0 3.146422e-02 4.325122e-03
</event>
<event>
4 7 1.0 5000.0 7.905138e-03 7.739137e-02
21 -1 0 0 103 101  0.000000e+00  0.000000e+00  9.985654e+02  9.985654e+02 0.0 0.0 9.0
 2 -1 0 0 101   0  0.000000e+00  0.000000e+00 -4.719954e+03  4.719954e+03 0.0 0.0 9.0
22  1 1 2   0   0 -1.611024e+03 -7.199849e+02 -3.526314e+03  3.943180e+03 0.0 0.0 9.0
 2  1 1 2 103   0  1.611024e+03  7.199849e+02 -1.950749e+02  1.775340e+03 0.0022 0.0 9.0
#pdf 21 2 1.536254e-01 7.261468e-01 5000.0 2.359755e-01 6.284768e-05
</event>
<event>
4 7 1.0 5000.0 7.905138e-03 7.739137e-02
 2 -1 0 0 101   0  0.000000e+00  0.000000e+00  2.093430e+03  2.093430e+03 0.0 0.0 9.0
21 -1 0 0 103 101  0.000000e+00  0.000000e+00 -3.024494e+03  3.024494e+03 0.0 0.0 9.0
 2  1 1 2 103   0  2.121717e+02  1.832685e+03  1.274592e+03  2.242395e+03 0.0022 0.0 9.0
22  1 1 2   0   0 -2.121717e+02 -1.832685e+03 -2.205655e+03  2.875529e+03 0.0 0.0 9.0
#pdf 2 21 3.220662e-01 4.653068e-01 5000.0 2.228426e-01 9.164954e-02
</event>
<event>
4 7 1.0 5000.0 7.905138e-03 7.739137e-02
 2 -1 0 0 101   0  0.000000e+00  0.000000e+00  3.498795e+03  3.498795e+03 0.0 0.0 9.0
21 -1 0 0 103 101  0.000000e+00  0.000000e+00 -1.300429e+03  1.300429e+03 0.0 0.0 9.0
 2  1 1 2 103   0  6.245069e+02  2.011119e+03  1.481218e+03  2.574610e+03 0.0022 0.0 9.0
22  1 1 2   0   0 -6.245069e+02 -2.011119e+03  7.171480e+02  2.224615e+03 0.0 0.0 9.0
#pdf 2 21 5.382762e-01 2.000661e-01 5000.0 5.136311e-02 3.819359e-01
</event>
<event>
4 7 1.0 5000.0 7.905138e-03 7.739137e-02
 2 -1 0 0 101   0  0.000000e+00  0.000000e+00  3.275969e+03  3.275969e+03 0.0 0.0 9.0
21 -1 0 0 103 101  0.000000e+00  0.000000e+00 -1.946406e+03  1.946406e+03 0.0 0.0 9.0
 2  1 1 2 103   0  1.344824e+03 -4.415566e+02  2.827168e+03  3.161709e+03 0.0022 0.0 9.0
22  1 1 2   0   0 -1.344824e+03  4.415566e+02 -1.497605e+03  2.060666e+03 0.0 0.0 9.0
#pdf 2 21 5.039952e-01 2.994470e-01 5000.0 6.825906e-02 2.498776e-01
</event>
<event>
4 7 1.0 5000.0 7.905138e-03 7.739137e-02
 2 -1 0 0 101   0  0.000000e+00  0.000000e+00  2.471681e+03  2.471681e+03 0.0 0.0 9.0
21 -1 0 0 103 101  0.000000e+00  0.000000e+00 -2.499553e+03  2.499553e+03 0.0 0.0 9.0
 2  1 1 2 103   0  1.151565e+03 -1.227280e+02 -2.213273e+03  2.497948e+03 0.0022 0.0 9.0
22  1 1 2   0   0 -1.151565e+03  1.227280e+02  2.185402e+03  2.473286e+03 0.0 0.0 9.0
#pdf 2 21 3.802587e-01 3.845466e-01 5000.0 1.609127e-01 1.568142e-01
</event>
<event>
4 7 1.0 5000.0 7.905138e-03 7.739137e-02
 2 -1 0 0 101   0  0.000000e+00  0.000000e+00  3.929247e+03  3.929247e+03 0.0 0.0 9.0
21 -1 0 0 103 101  0.000000e+00  0.000000e+00 -1.619864e+03  1.619864e+03 0.0 0.0 9.0
22  1 1 2   0   0 -1.037190e+03 -2.104709e+03  1.352373e+02  2.350288e+03 0.0 0.0 9.0
 2  1 1 2 103   0  1.037190e+03  2.104709e+03  2.174146e+03  3.198823e+03 0.0022 0.0 9.0
#pdf 2 21 6.044995e-01 2.492099e-01 5000.0 2.757502e-02 3.146638e-01
</event>
<event>
4 7 1.0 5000.0 7.905138e-03 7.739137e-02
 2 -1 0 0 101   0  0.000000e+00  0.000000e+00  2.441889e+03  2.441889e+03 0.0 0.0 9.0
21 -1 0 0 103 101  0.000000e+00  0.000000e+00 -2.501488e+03  2.501488e+03 0.0 0.0 9.0
22  1 1 2   0   0  6.992532e+02 -1.434746e+03  1.857374e+03  2.448936e+03 0.0 0.0 9.0
 2  1 1 2 103   0 -6.992532e+02  1.434746e+03 -1.916973e+03  2.494441e+03 0.0022 0.0 9.0
#pdf 2 21 3.756752e-01 3.848444e-01 5000.0 1.653612e-01 1.565320e-01
</event>
<event>
4 7 1.0 5000.0 7.905138e-03 7.739137e-02
21 -1 0 0 103 101  0.000000e+00  0.000000e+00  1.585597e+03  1.585597e+03 0.0 0.0 9.0
 2 -1 0 0 101   0  0.000000e+00  0.000000e+00 -4.030266e+03  4.030266e+03 0.0 0.0 9.0
22  1 1 2   0   0  1.575597e+03 -1.663590e+02  9.656794e+02  1.855457e+03 0.0 0.0 9.0
 2  1 1 2 103   0 -1.575597e+03  1.663590e+02 -3.410348e+03  3.760406e+03 0.0022 0.0 9.0
#pdf 21 2 2.439380e-01 6.200409e-01 5000.0 7.193781e-02 4.631015e-04
</event>
<event>
4 7 1.0 5000.0 7.905138e-03 7.739137e-02
 2 -1 0 0 101   0  0.000000e+00  0.000000e+00  2.809846e+03  2.809846e+03 0.0 0.0 9.0
21 -1 0 0 103 101  0.000000e+00  0.000000e+00 -2.240376e+03  2.240376e+03 0.0 0.0 9.0
22  1 1 2   0   0  3.879865e+02 -1.937122e+03  1.841316e+03  2.700633e+03 0.0 0.0 9.0
 2  1 1 2 103   0 -3.879865e+02  1.937122e+03 -1.271846e+03  2.349588e+03 0.0022 0.0 9.0
#pdf 2 21 4.322840e-01 3.446732e-01 5000.0 1.155455e-01 1.974152e-01
</event>
<event>
4 7 1.0 5000.0 7.905138e-03 7.739137e-02
 2 -1 0 0 101   0  0.000000e+00  0.000000e+00  2.336403e+03  2.336403e+03 0.0 0.0 9.0
21 -1 0 0 103 101  0.000000e+00  0.000000e+00 -2.651240e+03  2.651240e+03 0.0 0.0 9.0
 2  1 1 2 103   0 -2.193213e+02  1.952854e+03  1.372927e+03  2.397221e+03 0.0022 0.0 9.0
22  1 1 2   0   0  2.193213e+02 -1.952854e+03 -1.687763e+03  2.590422e+03 0.0 0.0 9.0
#pdf 2 21 3.594467e-01 4.078830e-01 5000.0 1.817217e-01 1.356317e-01
</event>
<event>
4 7 1.0 5000.0 7.905138e-03 7.739137e-02
21 -1 0 0 103 101  0.000000e+00  0.000000e+00  2.075570e+03  2.075570e+03 0.0 0.0 9.0
 2 -1 0 0 101   0  0.000000e+00  0.000000e+00 -3.020504e+03  3.020504e+03 0.0 0.0 9.0
22  1 1 2   0   0  8.617570e+02  1.322160e+03  1.505683e+03  2.181241e+03 0.0 0.0 9.0
 2  1 1 2 103   0 -8.617570e+02 -1.322160e+03 -2.450616e+03  2.914833e+03 0.0022 0.0 9.0
#pdf 21 2 3.193185e-01 4.646929e-01 5000.0 2.842935e-02 4.543909e-03
</event>
<event>
4 7 1.0 5000.0 7.905138e-03 7.739137e-02
21 -1 0 0 103 101  0.000000e+00  0.000000e+00  1.904573e+03  1.904573e+03 0.0 0.0 9.0
 2 -1 0 0 101   0  0.000000e+00  0.000000e+00 -3.286916e+03  3.286916e+03 0.0 0.0 9.0
 2  1 1 2 103   0 -3.938637e+02 -2.059055e+03  7.257543e+02  2.218458e+03 0.0022 0.0 9.0
22  1 1 2   0   0  3.938637e+02  2.059055e+03 -2.108097e+03  2.973031e+03 0.0 0.0 9.0
#pdf 21 2 2.930112e-01 5.056793e-01 5000.0 3.927720e-02 2.605099e-03
</event>
<event>
4 7 1.0 5000.0 7.905138e-03 7.739137e-02
21 -1 0 0 103 101  0.000000e+00  0.000000e+00  2.080052e+03  2.080052e+03 0.0 0.0 9.0
 2 -1 0 0 101   0  0.000000e+00  0.000000e+00 -3.014615e+03  3.014615e+03 0.0 0.0 9.0
 2  1 1 2 103   0 -1.424052e+03  1.578452e+03 -1.813423e+03  2.794269e+03 0.0022 0.0 9.0
22  1 1 2   0   0  1.424052e+03 -1.578452e+03  8.788599e+02  2.300398e+03 0.0 0.0 9.0
#pdf 21 2 3.200079e-01 4.637869e-01 5000.0 2.819015e-02 4.598635e-03
</event>
<event>
4 7 1.0 5000.0 7.905138e-03 7.739137e-02
 2 -1 0 0 101   0  0.000000e+00  0.000000e+00  1.839395e+03  1.839395e+03 0.0 0.0 9.0
21 -1 0 0 103 101  0.000000e+00  0.000000e+00 -3.140867e+03  3.140867e+03 0.0 0.0 9.0
 2  1 1 2 103   0  7.823227e+02 -1.866487e+03 -1.994142e+03  2.841198e+03 0.0022 0.0 9.0
22  1 1 2   0   0 -7.823227e+02  1.866487e+03  6.926704e+02  2.139064e+03 0.0 0.0 9.0
#pdf 2 21 2.829839e-01 4.832103e-01 5000.0 2.704716e-01 8.022704e-02
</event>
<event>
4 7 1.0 5000.0 7.905138e-03 7.739137e-02
21 -1 0 0 103 101  0.000000e+00  0.000000e+00  2.351815e+03  2.351815e+03 0.0 0.0 9.0
 2 -1 0 0 101   0  0.000000e+00  0.000000e+00 -2.549897e+03  2.549897e+03 0.0 0.0 9.0
 2  1 1 2 103   0  2.268180e+03 -3.815073e+02  7.423003e+02  2.416857e+03 0.0022 0.0 9.0
22  1 1 2   0   0 -2.268180e+03  3.815073e+02 -9.403819e+02  2.484855e+03 0.0 0.0 9.0
#pdf 21 2 3.618177e-01 3.922918e-01 5000.0 1.686889e-02 1.154570e-02
</event>
<event>
4 7 1.0 5000.0 7.905138e-03 7.739137e-02
21 -1 0 0 103 101  0.000000e+00  0.000000e+00  3.320492e+03  3.320492e+03 0.0 0.0 9.0
 2 -1 0 0 101   0  0.000000e+00  0.000000e+00 -2.421355e+03  2.421355e+03 0.0 0.0 9.0
22  1 1 2   0   0  1.010714e+03 -2.529643e+03 -3.473185e+02  2.746136e+03 0.0 0.0 9.0
 2  1 1 2 103   0 -1.010714e+03  2.529643e+03  1.246456e+03  2.995711e+03 0.0022 0.0 9.0
#pdf 21 2 5.108450e-01 3.725161e-01 5000.0 2.424743e-03 1.477325e-02
</event>
<event>
4 7 1.0 5000.0 7.905138e-03 7.739137e-02
 2 -1 0 0 101   0  0.000000e+00  0.000000e+00  1.281372e+03  1.281372e+03 0.0 0.0 9.0
21 -1 0 0 103 101  0.000000e+00  0.000000e+00 -3.508567e+03  3.508567e+03 0.0 0.0 9.0
22  1 1 2   0   0  8.493245e+02 -1.759517e+02  1.071821e+03  1.378808e+03 0.0 0.0 9.0
 2  1 1 2 103   0 -8.493245e+02  1.759517e+02 -3.299016e+03  3.411132e+03 0.0022 0.0 9.0
#pdf 2 21 1.971341e-01 5.397796e-01 5000.0 3.859951e-01 5.069959e-02
</event>
<event>
4 7 1.0 5000.0 7.905138e-03 7.739137e-02
 2 -1 0 0 101   0  0.000000e+00  0.000000e+00  3.199679e+03  3.199679e+03 0.0 0.0 9.0
21 -1 0 0 103 101  0.000000e+00  0.000000e+00 -1.960822e+03  1.960822e+03 0.0 0.0 9.0
22  1 1 2   0   0  3.349731e+01  1.060465e+03  2.956764e+03  3.141363e+03 0.0 0.0 9.0
 2  1 1 2 103   0 -3.349731e+01 -1.060465e+03 -1.717908e+03  2.019138e+03 0.0022 0.0 9.0
#pdf 2 21 4.922582e-01 3.016650e-01 5000.0 7.485007e-02 2.471593e-01
</event>
<event>
4 7 1.0 5000.0 7.905138e-03 7.739137e-02
 2 -1 0 0 101   0  0.000000e+00  0.000000e+00  4.134856e+03  4.134856e+03 0.0 0.0 9.0
21 -1 0 0 103 101  0.000000e+00  0.000000e+00 -1.112297e+03  1.112297e+03 0.0 0.0 9.0
 2  1 1 2 103   0 -1.745558e+03  5.973963e+02  2.848793e+03  3.394035e+03 0.0022 0.0 9.0
22  1 1 2   0   0  1.745558e+03 -5.973963e+02  1.737658e+02  1.853118e+03 0.0 0.0 9.0
#pdf 2 21 6.361317e-01 1.711227e-01 5000.0 1.966584e-02 4.216395e-01
</event>
<event>
4 7 1.0 5000.0 7.905138e-03 7.739137e-02
 2 -1 0 0 101   0  0.000000e+00  0.000000e+00  3.618360e+03  3.618360e+03 0.0 0.0 9.0
21 -1 0 0 103 101  0.000000e+00  0.000000e+00 -1.701077e+03  1.701077e+03 0.0 0.0 9.0
 2  1 1 2 103   0  1.640653e+03 -9.810834e+02 -7.367155e+02  2.048662e+03 0.0022 0.0 9.0
22  1 1 2   0   0 -1.640653e+03  9.810834e+02  2.653999e+03  3.270776e+03 0.0 0.0 9.0
#pdf 2 21 5.566708e-01 2.617042e-01 5000.0 4.367048e-02 2.980587e-01
</event>
<event>
4 7 1.0 5000.0 7.905138e-03 7.739137e-02
 2 -1 0 0 101   0  0.000000e+00  0.000000e+00  3.503906e+03  3.503906e+03 0.0 0.0 9.0
21 -1 0 0 103 101  0.000000e+00  0.000000e+00 -1.753959e+03  1.753959e+03 0.0 0.0 9.0
22  1 1 2   0   0  1.894732e+03 -6.752249e+01 -8.188201e+02  2.065196e+03 0.0 0.0 9.0
 2  1 1 2 103   0 -1.894732e+03  6.752249e+01  2.568767e+03  3.192669e+03 0.0022 0.0 9.0
#pdf 2 21 5.390624e-01 2.698398e-01 5000.0 5.101514e-02 2.873964e-01
</event>
<event>
4 7 1.0 5000.0 7.905138e-03 7.739137e-02
 2 -1 0 0 101   0  0.000000e+00  0.000000e+00  1.570878e+03  1.570878e+03 0.0 0.0 9.0
21 -1 0 0 103 101  0.000000e+00  0.000000e+00 -3.974839e+03  3.974839e+03 0.0 0.0 9.0
22  1 1 2   0   0  1.883574e+03 -9.938304e+02 -2.652409e+03  3.401591e+03 0.0 0.0 9.0
 2  1 1 2 103   0 -1.883574e+03  9.938304e+02  2.484492e+02  2.144126e+03 0.0022 0.0 9.0
#pdf 2 21 2.416736e-01 6.115136e-01 5000.0 3.248063e-01 2.564961e-02
</event>
<event>
4 7 1.0 5000.0 7.905138e-03 7.739137e-02
21 -1 0 0 103 101  0.000000e+00  0.000000e+00  4.691309e+03  4.691309e+03 0.0 0.0 9.0
 2 -1 0 0 101   0  0.000000e+00  0.000000e+00 -1.020506e+03  1.020506e+03 0.0 0.0 9.0
 2  1 1 2 103   0 -7.690708e+02 -1.353582e+03 -1.713781e+02  1.566213e+03 0.0022 0.0 9.0
22  1 1 2   0   0  7.690708e+02  1.353582e+03  3.842182e+03  4.145602e+03 0.0 0.0 9.0
#pdf 21 2 7.217399e-01 1.570009e-01 5000.0 6.905799e-05 2.247850e-01
</event>
<event>
4 7 1.0 5000.0 7.905138e-03 7.739137e-02
 2 -1 0 0 101   0  0.000000e+00  0.000000e+00  3.600982e+03  3.600982e+03 0.0 0.0 9.0
21 -1 0 0 103 101  0.000000e+00  0.000000e+00 -1.735272e+03  1.735272e+03 0.0 0.0 9.0
 2  1 1 2 103   0 -6.248040e+02  1.138944e+03  3.212397e+03  3.465121e+03 0.0022 0.0 9.0
22  1 1 2   0   0  6.248040e+02 -1.138944e+03 -1.346687e+03  1.871133e+03 0.0 0.0 9.0
#pdf 2 21 5.539972e-01 2.669650e-01 5000.0 4.472325e-02 2.911521e-01
</event>
<event>
4 7 1.0 5000.0 7.905138e-03 7.739137e-02
21 -1 0 0 103 101  0.000000e+00  0.000000e+00  1.465227e+03  1.465227e+03 0.0 0.0 9.0
 2 -1 0 0 101   0  0.000000e+00  0.000000e+00 -4.194876e+03  4.194876e+03 0.0 0.0 9.0
 2  1 1 2 103   0 -1.347212e+03 -1.876155e+03 -2.393147e+03  3.325972e+03 0.0022 0.0 9.0
22  1 1 2   0   0  1.347212e+03  1.876155e+03 -3.365028e+02  2.334132e+03 0.0 0.0 9.0
#pdf 21 2 2.254195e-01 6.453656e-01 5000.0 9.075874e-02 3.004924e-04
</event>
<event>
4 7 1.0 5000.0 7.905138e-03 7.739137e-02
 2 -1 0 0 101   0  0.000000e+00  0.000000e+00  3.425547e+03  3.425547e+03 0.0 0.0 9.0
21 -1 0 0 103 101  0.000000e+00  0.000000e+00 -1.831825e+03  1.831825e+03 0.0 0.0 9.0
 2  1 1 2 103   0 -1.856431e+03 -1.678628e+03  6.874310e+02  2.595513e+03 0.0022 0.0 9.0
22  1 1 2   0   0  1.856431e+03  1.678628e+03  9.062916e+02  2.661859e+03 0.0 0.0 9.0
#pdf 2 21 5.270073e-01 2.818192e-01 5000.0 5.655138e-02 2.719531e-01
</event>
<event>
4 7 1.0 5000.0 7.905138e-03 7.739137e-02
 2 -1 0 0 101   0  0.000000e+00  0.000000e+00  2.087394e+03  2.087394e+03 0.0 0.0 9.0
21 -1 0 0 103 101  0.000000e+00  0.000000e+00 -3.010810e+03  3.010810e+03 0.0 0.0 9.0
 2  1 1 2 103   0 -1.696158e+03  1.686313e+03  3.020175e+02  2.410771e+03 0.0022 0.0 9.0
22  1 1 2   0   0  1.696158e+03 -1.686313e+03 -1.225434e+03  2.687432e+03 0.0 0.0 9.0
#pdf 2 21 3.211375e-01 4.632016e-01 5000.0 2.239224e-01 9.305849e-02
</event>
<event>
4 7 1.0 5000.0 7.905138e-03 7.739137e-02
21 -1 0 0 103 101  0.000000e+00  0.000000e+00  3.479564e+03  3.479564e+03 0.0 0.0 9.0
 2 -1 0 0 101   0  0.000000e+00  0.000000e+00 -2.879600e+03  2.879600e+03 0.0 0.0 9.0
 2  1 1 2 103   0 -2.423336e+03 -5.917050e+02  2.257323e+03  3.364250e+03 0.0022 0.0 9.0
22  1 1 2   0   0  2.423336e+03  5.917050e+02 -1.657359e+03  2.994914e+03 0.0 0.0 9.0
#pdf 21 2 5.353175e-01 4.430154e-01 5000.0 1.713008e-03 6.046381e-03
</event>
<event>
4 7 1.0 5000.0 7.905138e-03 7.739137e-02
21 -1 0 0 103 101  0.000000e+00  0.000000e+00  2.874413e+03  2.874413e+03 0.0 0.0 9.0
 2 -1 0 0 101   0  0.000000e+00  0.000000e+00 -1.758031e+03  1.758031e+03 0.0 0.0 9.0
22  1 1 2   0   0  1.564945e+03  1.303511e+03 -4.220736e+02  2.079986e+03 0.0 0.0 9.0
 2  1 1 2 103   0 -1.564945e+03 -1.303511e+03  1.538456e+03  2.552458e+03 0.0022 0.0 9.0
#pdf 21 2 4.422174e-01 2.704663e-01 5000.0 6.110568e-03 5.174786e-02
</event>
<event>
4 7 1.0 5000.0 7.905138e-03 7.739137e-02
21 -1 0 0 103 101  0.000000e+00  0.000000e+00  4.125034e+03  4.125034e+03 0.0 0.0 9.0
 2 -1 0 0 101   0  0.000000e+00  0.000000e+00 -1.543327e+03  1.543327e+03 0.0 0.0 9.0
 2  1 1 2 103   0 -2.186224e+03 -8.238430e+02  2.361198e+03  3.321679e+03 0.0022 0.0 9.0
22  1 1 2   0   0  2.186224e+03  8.238430e+02  2.205086e+02  2.346682e+03 0.0 0.0 9.0
#pdf 21 2 6.346206e-01 2.374350e-01 5000.0 3.619824e-04 7.807553e-02
</event>
<event>
4 7 1.0 5000.0 7.905138e-03 7.739137e-02
21 -1 0 0 103 101  0.000000e+00  0.000000e+00  1.998874e+03  1.998874e+03 0.0 0.0 9.0
 2 -1 0 0 101   0  0.000000e+00  0.000000e+00 -3.154774e+03  3.154774e+03 0.0 0.0 9.0
 2  1 1 2 103   0  4.292008e+02 -1.743589e+03 -2.379315e+03  2.980848e+03 0.0022 0.0 9.0
22  1 1 2   0   0 -4.292008e+02  1.743589e+03  1.223415e+03  2.172800e+03 0.0 0.0 9.0
#pdf 21 2 3.075191e-01 4.853498e-01 5000.0 3.288525e-02 3.443073e-03
</event>
<event>
4 7 1.0 5000.0 7.905138e-03 7.739137e-02
 2 -1 0 0 101   0  0.000000e+00  0.000000e+00  3.325675e+03  3.325675e+03 0.0 0.0 9.0
21 -1 0 0 103 101  0.000000e+00  0.000000e+00 -1.888194e+03  1.888194e+03 0.0 0.0 9.0
 2  1 1 2 103   0  2.378030e+03  7.605989e+02  4.956607e+02  2.545431e+03 0.0022 0.0 9.0
22  1 1 2   0   0 -2.378030e+03 -7.605989e+02  9.418210e+02  2.668439e+03 0.0 0.0 9.0
#pdf 2 21 5.116424e-01 2.904914e-01 5000.0 6.419192e-02 2.609808e-01
</event>
<event>
4 7 1.0 5000.0 7.905138e-03 7.739137e-02
 2 -1 0 0 101   0  0.000000e+00  0.000000e+00  2.980252e+03  2.980252e+03 0.0 0.0 9.0
21 -1 0 0 103 101  0.000000e+00  0.000000e+00 -2.188223e+03  2.188223e+03 0.0 0.0 9.0
 2  1 1 2 103   0  8.124019e+02  3.763728e+02  2.816211e+03  2.955114e+03 0.0022 0.0 9.0
22  1 1 2   0   0 -8.124019e+02 -3.763728e+02 -2.024182e+03  2.213361e+03 0.0 0.0 9.0
#pdf 2 21 4.585003e-01 3.366496e-01 5000.0 9.626711e-02 2.062456e-01
</event>
<event>
4 7 1.0 5000.0 7.905138e-03 7.739137e-02
21 -1 0 0 103 101  0.000000e+00  0.000000e+00  1.729459e+03  1.729459e+03 0.0 0.0 9.0
 2 -1 0 0 101   0  0.000000e+00  0.000000e+00 -3.621677e+03  3.621677e+03 0.0 0.0 9.0
22  1 1 2   0   0 -4.543760e+02  1.660743e+03 -2.887882e+03  3.362199e+03 0.0 0.0 9.0
 2  1 1 2 103   0  4.543760e+02 -1.660743e+03  9.956629e+02  1.988937e+03 0.0022 0.0 9.0
#pdf 21 2 2.660706e-01 5.571811e-01 5000.0 5.462777e-02 1.244129e-03
</event>
<event>
4 7 1.0 5000.0 7.905138e-03 7.739137e-02
 2 -1 0 0 101   0  0.000000e+00  0.000000e+00  2.361934e+03  2.361934e+03 0.0 0.0 9.0
21 -1 0 0 103 101  0.000000e+00  0.000000e+00 -2.664228e+03  2.664228e+03 0.0 0.0 9.0
 2  1 1 2 103   0 -7.078256e+02  1.319473e+03  1.865139e+03  2.391813e+03 0.0022 0.0 9.0
22  1 1 2   0   0  7.078256e+02 -1.319473e+03 -2.167433e+03  2.634348e+03 0.0 0.0 9.0
#pdf 2 21 3.633744e-01 4.098812e-01 5000.0 1.776758e-01 1.339084e-01
</event>
<event>
4 7 1.0 5000.0 7.905138e-03 7.739137e-02
 2 -1 0 0 101   0  0.000000e+00  0.000000e+00  3.176495e+03  3.176495e+03 0.0 0.0 9.0
21 -1 0 0 103 101  0.000000e+00  0.000000e+00 -1.946093e+03  1.946093e+03 0.0 0.0 9.0
22  1 1 2   0   0 -2.438910e+03  3.675359e+01  1.188768e+02  2.442082e+03 0.0 0.0 9.0
 2  1 1 2 103   0  2.438910e+03 -3.675359e+01  1.111525e+03  2.680507e+03 0.0022 0.0 9.0
#pdf 2 21 4.886916e-01 2.993990e-01 5000.0 7.693878e-02 2.499363e-01
</event>
<event>
4 7 1.0 5000.0 7.905138e-03 7.739137e-02
21 -1 0 0 103 101  0.000000e+00  0.000000e+00  1.986298e+03  1.986298e+03 0.0 0.0 9.0
 2 -1 0 0 101   0  0.000000e+00  0.000000e+00 -3.137644e+03  3.137644e+03 0.0 0.0 9.0
22  1 1 2   0   0 -2.014964e+03  1.089231e+03 -1.594600e+03  2.790923e+03 0.0 0.0 9.0
 2  1 1 2 103   0  2.014964e+03 -1.089231e+03  4.432536e+02  2.333019e+03 0.0022 0.0 9.0
#pdf 21 2 3.055843e-01 4.827145e-01 5000.0 3.367212e-02 3.568427e-03
</event>
<event>
4 7 1.0 5000.0 7.905138e-03 7.739137e-02
 2 -1 0 0 101   0  0.000000e+00  0.000000e+00  3.699241e+03  3.699241e+03 0.0 0.0 9.0
21 -1 0 0 103 101  0.000000e+00  0.000000e+00 -1.650888e+03  1.650888e+03 0.0 0.0 9.0
22  1 1 2   0   0 -1.912880e+03 -4.943373e+02  2.631048e+03  3.290272e+03 0.0 0.0 9.0
 2  1 1 2 103   0  1.912880e+03  4.943373e+02 -5.826943e+02  2.059857e+03 0.0022 0.0 9.0
#pdf 2 21 5.691141e-01 2.539828e-01 5000.0 3.894783e-02 3.082718e-01
</event>
<event>
4 7 1.0 5000.0 7.905138e-03 7.739137e-02
21 -1 0 0 103 101  0.000000e+00  0.000000e+00  1.550096e+03  1.550096e+03 0.0 0.0 9.0
 2 -1 0 0 101   0  0.000000e+00  0.000000e+00 -3.739082e+03  3.739082e+03 0.0 0.0 9.0
 2  1 1 2 103   0  1.443273e+03 -1.897310e+03 -7.250455e+02  2.491689e+03 0.0022 0.0 9.0
22  1 1 2   0   0 -1.443273e+03  1.897310e+03 -1.463941e+03  2.797489e+03 0.0 0.0 9.0
#pdf 21 2 2.384763e-01 5.752434e-01 5000.0 7.707027e-02 9.454864e-04
</event>
<event>
4 7 1.0 5000.0 7.905138e-03 7.739137e-02
 2 -1 0 0 101   0  0.000000e+00  0.000000e+00  2.892154e+03  2.892154e+03 0.0 0.0 9.0
21 -1 0 0 103 101  0.000000e+00  0.000000e+00 -2.146189e+03  2.146189e+03 0.0 0.0 9.0
 2  1 1 2 103   0  1.462073e+03 -2.004292e+03  1.418238e+02  2.484947e+03 0.0022 0.0 9.0
22  1 1 2   0   0 -1.462073e+03  2.004292e+03  6.041413e+02  2.553396e+03 0.0 0.0 9.0
#pdf 2 21 4.449468e-01 3.301829e-01 5000.0 1.059344e-01 2.135163e-01
</event>
<event>
4 7 1.0 5000.0 7.905138e-03 7.739137e-02
21 -1 0 0 103 101  0.000000e+00  0.000000e+00  2.778220e+03  2.778220e+03 0.0 0.0 9.0
 2 -1 0 0 101   0  0.000000e+00  0.000000e+00 -2.186680e+03  2.186680e+03 0.0 0.0 9.0
22  1 1 2   0   0  2.042971e+03 -7.184570e+02  1.481146e+03  2.623681e+03 0.0 0.0 9.0
 2  1 1 2 103   0 -2.042971e+03  7.184570e+02 -8.896051e+02  2.341219e+03 0.0022 0.0 9.0
#pdf 21 2 4.274185e-01 3.364123e-01 5000.0 7.392121e-03 2.305675e-02
</event>
<event>
4 7 1.0 5000.0 7.905138e-03 7.739137e-02
21 -1 0 0 103 101  0.000000e+00  0.000000e+00  3.868401e+03  3.868401e+03 0.0 0.0 9.0
 2 -1 0 0 101   0  0.000000e+00  0.000000e+00 -1.612180e+03  1.612180e+03 0.0 0.0 9.0
 2  1 1 2 103   0  1.527689e+03 -1.626788e+03  2.358007e+03  3.246609e+03 0.0022 0.0 9.0
22  1 1 2   0   0 -1.527689e+03  1.626788e+03 -1.017866e+02  2.233972e+03 0.0 0.0 9.0
#pdf 21 2 5.951386e-01 2.480277e-01 5000.0 6.933186e-04 6.836707e-02
</event>
<event>
4 7 1.0 5000.0 7.905138e-03 7.739137e-02
21 -1 0 0 103 101  0.000000e+00  0.000000e+00  3.633648e+03  3.633648e+03 0.0 0.0 9.0
 2 -1 0 0 101   0  0.000000e+00  0.000000e+00 -1.479370e+03  1.479370e+03 0.0 0.0 9.0
22  1 1 2   0   0  2.070363e+03  6.125528e+02  1.454904e+02  2.163976e+03 0.0 0.0 9.0
 2  1 1 2 103   0 -2.070363e+03 -6.125528e+02  2.008788e+03  2.949043e+03 0.0022 0.0 9.0
#pdf 21 2 5.590228e-01 2.275954e-01 5000.0 1.210781e-03 8.827748e-02
</event>
<event>
4 7 1.0 5000.0 7.905138e-03 7.739137e-02
21 -1 0 0 103 101  0.000000e+00  0.000000e+00  1.621914e+03  1.621914e+03 0.0 0.0 9.0
 2 -1 0 0 101   0  0.000000e+00  0.000000e+00 -4.258433e+03  4.258433e+03 0.0 0.0 9.0
 2  1 1 2 103   0 -1.819867e+03  1.304711e+03  2.208397e+02  2.250101e+03 0.0022 0.0 9.0
22  1 1 2   0   0  1.819867e+03 -1.304711e+03 -2.857359e+03  3.630246e+03 0.0 0.0 9.0
#pdf 21 2 2.495252e-01 6.551436e-01 5000.0 6.712708e-02 2.530607e-04
</event>
<event>
4 7 1.0 5000.0 7.905138e-03 7.739137e-02
 2 -1 0 0 101   0  0.000000e+00  0.000000e+00  2.444368e+03  2.444368e+03 0.0 0.0 9.0
21 -1 0 0 103 101  0.000000e+00  0.000000e+00 -2.558744e+03  2.558744e+03 0.0 0.0 9.0
 2  1 1 2 103   0 -2.251083e+03 -7.969995e+02  6.859271e+02  2.484568e+03 0.0022 0.0 9.0
22  1 1 2   0   0  2.251083e+03  7.969995e+02 -8.003033e+02  2.518545e+03 0.0 0.0 9.0
#pdf 2 21 3.760567e-01 3.936530e-01 5000.0 1.649884e-01 1.483272e-01
</event>
<event>
4 7 1.0 5000.0 7.905138e-03 7.739137e-02
21 -1 0 0 103 101  0.000000e+00  0.000000e+00  2.073400e+03  2.073400e+03 0.0 0.0 9.0
 2 -1 0 0 101   0  0.000000e+00  0.000000e+00 -2.962415e+03  2.962415e+03 0.0 0.0 9.0
22  1 1 2   0   0 -1.690700e+03 -1.367525e+03 -1.652462e+03  2.731158e+03 0.0 0.0 9.0
 2  1 1 2 103   0  1.690700e+03  1.367525e+03  7.634474e+02  2.304657e+03 0.0022 0.0 9.0
#pdf 21 2 3.189846e-01 4.557562e-01 5000.0 2.854596e-02 5.116624e-03
</event>
<event>
4 7 1.0 5000.0 7.905138e-03 7.739137e-02
21 -1 0 0 103 101  0.000000e+00  0.000000e+00  3.648049e+03  3.648049e+03 0.0 0.0 9.0
 2 -1 0 0 101   0  0.000000e+00  0.000000e+00 -1.594950e+03  1.594950e+03 0.0 0.0 9.0
22  1 1 2   0   0 -9.267998e+02  6.343466e+02 -1.293463e+03  1.713009e+03 0.0 0.0 9.0
 2  1 1 2 103   0  9.267998e+02 -6.343466e+02  3.346562e+03  3.529991e+03 0.0022 0.0 9.0
#pdf 21 2 5.612384e-01 2.453770e-01 5000.0 1.171392e-03 7.061353e-02
</event>
<event>
4 7 1.0 5000.0 7.905138e-03 7.739137e-02
 2 -1 0 0 101   0  0.000000e+00  0.000000e+00  1.471465e+03  1.471465e+03 0.0 0.0 9.0
21 -1 0 0 103 101  0.000000e+00  0.000000e+00 -3.099523e+03  3.099523e+03 0.0 0.0 9.0
22  1 1 2   0   0 -1.347750e+02  1.436692e+03 -2.498875e+03  2.885589e+03 0.0 0.0 9.0
 2  1 1 2 103   0  1.347750e+02 -1.436692e+03  8.708173e+02  1.685399e+03 0.0022 0.0 9.0
#pdf 2 21 2.263792e-01 4.768497e-01 5000.0 3.456846e-01 8.416480e-02
</event>
<event>
4 7 1.0 5000.0 7.905138e-03 7.739137e-02
 2 -1 0 0 101   0  0.000000e+00  0.000000e+00  2.619085e+03  2.619085e+03 0.0 0.0 9.0
21 -1 0 0 103 101  0.000000e+00  0.000000e+00 -2.360878e+03  2.360878e+03 0.0 0.0 9.0
22  1 1 2   0   0 -2.086444e+03  1.196102e+03  7.619607e+02  2.522795e+03 0.0 0.0 9.0
 2  1 1 2 103   0  2.086444e+03 -1.196102e+03 -5.037534e+02  2.457168e+03 0.0022 0.0 9.0
#pdf 2 21 4.029362e-01 3.632120e-01 5000.0 1.399629e-01 1.778421e-01
</event>
<event>
4 7 1.0 5000.0 7.905138e-03 7.739137e-02
21 -1 0 0 103 101  0.000000e+00  0.000000e+00  2.780600e+03  2.780600e+03 0.0 0.0 9.0
 2 -1 0 0 101   0  0.000000e+00  0.000000e+00 -2.324202e+03  2.324202e+03 0.0 0.0 9.0
22  1 1 2   0   0  7.408817e+01 -5.274727e+02  2.723945e+03  2.775535e+03 0.0 0.0 9.0
 2  1 1 2 103   0 -7.408817e+01  5.274727e+02 -2.267547e+03  2.329267e+03 0.0022 0.0 9.0
#pdf 21 2 4.277847e-01 3.575696e-01 5000.0 7.357320e-03 1.777036e-02
</event>
<event>
4 7 1.0 5000.0 7.905138e-03 7.739137e-02
 2 -1 0 0 101   0  0.000000e+00  0.000000e+00  2.258503e+03  2.258503e+03 0.0 0.0 9.0
21 -1 0 0 103 101  0.000000e+00  0.000000e+00 -2.819037e+03  2.819037e+03 0.0 0.0 9.0
22  1 1 2   0   0 -1.111227e+03  4.422420e+02  1.955198e+03  2.291986e+03 0.0 0.0 9.0
 2  1 1 2 103   0  1.111227e+03 -4.422420e+02 -2.515732e+03  2.785554e+03 0.0022 0.0 9.0
#pdf 2 21 3.474620e-01 4.336980e-01 5000.0 1.943944e-01 1.144483e-01
</event>
<event>
4 7 1.0 5000.0 7.905138e-03 7.739137e-02
21 -1 0 0 103 101  0.000000e+00  0.000000e+00  4.149282e+03  4.149282e+03 0.0 0.0 9.0
 2 -1 0 0 101   0  0.000000e+00  0.000000e+00 -1.874410e+03  1.874410e+03 0.0 0.0 9.0
 2  1 1 2 103   0 -1.465164e+03 -3.683181e+02  3.669073e+03  3.967929e+03 0.0022 0.0 9.0
22  1 1 2   0   0  1.465164e+03  3.683181e+02 -1.394201e+03  2.055763e+03 0.0 0.0 9.0
#pdf 21 2 6.383511e-01 2.883708e-01 5000.0 3.395734e-04 4.155042e-02
</event>
<event>
4 7 1.0 5000.0 7.905138e-03 7.739137e-02
21 -1 0 0 103 101  0.000000e+00  0.000000e+00  2.412843e+03  2.412843e+03 0.0 0.0 9.0
 2 -1 0 0 101   0  0.000000e+00  0.000000e+00 -2.510778e+03  2.510778e+03 0.0 0.0 9.0
22  1 1 2   0   0  1.928815e+03  1.320364e+03 -8.201089e+02  2.477149e+03 0.0 0.0 9.0
 2  1 1 2 103   0 -1.928815e+03 -1.320364e+03  7.221740e+02  2.446472e+03 0.0022 0.0 9.0
#pdf 21 2 3.712066e-01 3.862735e-01 5000.0 1.501041e-02 1.245526e-02
</event>
<event>
4 7 1.0 5000.0 7.905138e-03 7.739137e-02
 2 -1 0 0 101   0  0.000000e+00  0.000000e+00  2.290011e+03  2.290011e+03 0.0 0.0 9.0
21 -1 0 0 103 101  0.000000e+00  0.000000e+00 -2.560502e+03  2.560502e+03 0.0 0.0 9.0
 2  1 1 2 103   0  6.141230e+02 -2.341625e+03 -7.838766e+01  2.422086e+03 0.0022 0.0 9.0
22  1 1 2   0   0 -6.141230e+02  2.341625e+03 -1.921036e+02  2.428427e+03 0.0 0.0 9.0
#pdf 2 21 3.523094e-01 3.939234e-01 5000.0 1.892076e-01 1.480794e-01
</event>
<event>
4 7 1.0 5000.0 7.905138e-03 7.739137e-02
21 -1 0 0 103 101  0.000000e+00  0.000000e+00  2.308412e+03  2.308412e+03 0.0 0.0 9.0
 2 -1 0 0 101   0  0.000000e+00  0.000000e+00 -2.680539e+03  2.680539e+03 0.0 0.0 9.0
22  1 1 2   0   0  1.267022e+03 -2.028065e+03  5.009737e+02  2.443229e+03 0.0 0.0 9.0
 2  1 1 2 103   0 -1.267022e+03  2.028065e+03 -8.731009e+02  2.545722e+03 0.0022 0.0 9.0
#pdf 21 2 3.551403e-01 4.123906e-01 5000.0 1.831234e-02 8.957066e-03
</event>
<event>
4 7 1.0 5000.0 7.905138e-03 7.739137e-02
21 -1 0 0 103 101  0.000000e+00  0.000000e+00  1.204238e+03  1.204238e+03 0.0 0.0 9.0
 2 -1 0 0 101   0  0.000000e+00  0.000000e+00 -5.182895e+03  5.182895e+03 0.0 0.0 9.0
 2  1 1 2 103   0 -1.163252e+03 -7.616685e+02 -4.642582e+03  4.846324e+03 0.0022 0.0 9.0
22  1 1 2   0   0  1.163252e+03  7.616685e+02  6.639242e+02  1.540808e+03 0.0 0.0 9.0
#pdf 21 2 1.852673e-01 7.973685e-01 5000.0 1.529215e-01 1.101246e-05
</event>
<event>
4 7 1.0 5000.0 7.905138e-03 7.739137e-02
21 -1 0 0 103 101  0.000000e+00  0.000000e+00  2.702773e+03  2.702773e+03 0.0 0.0 9.0
 2 -1 0 0 101   0  0.000000e+00  0.000000e+00 -2.299431e+03  2.299431e+03 0.0 0.0 9.0
 2  1 1 2 103   0  5.619005e+02 -1.637501e+03 -1.597983e+03  2.355991e+03 0.0022 0.0 9.0
22  1 1 2   0   0 -5.619005e+02  1.637501e+03  2.001324e+03  2.646213e+03 0.0 0.0 9.0
#pdf 21 2 4.158112e-01 3.537587e-01 5000.0 8.575754e-03 1.863100e-02
</event>
<event>
4 7 1.0 5000.0 7.905138e-03 7.739137e-02
 2 -1 0 0 101   0  0.000000e+00  0.000000e+00  1.541976e+03  1.541976e+03 0.0 0.0 9.0
21 -1 0 0 103 101  0.000000e+00  0.000000e+00 -3.342973e+03  3.342973e+03 0.0 0.0 9.0
 2  1 1 2 103   0 -6.483705e+02  2.422496e+02 -3.226708e+03  3.300108e+03 0.0022 0.0 9.0
22  1 1 2   0   0  6.483705e+02 -2.422496e+02  1.425711e+03  1.584841e+03 0.0 0.0 9.0
#pdf 2 21 2.372271e-01 5.143035e-01 5000.0 3.308355e-01 6.281777e-02
</event>
<event>
4 7 1.0 5000.0 7.905138e-03 7.739137e-02
 2 -1 0 0 101   0  0.000000e+00  0.000000e+00  2.926267e+03  2.926267e+03 0.0 0.0 9.0
21 -1 0 0 103 101  0.000000e+00  0.000000e+00 -2.004628e+03  2.004628e+03 0.0 0.0 9.0
 2  1 1 2 103   0 -2.044552e+03 -1.157784e+03 -1.374502e+02  2.353624e+03 0.0022 0.0 9.0
22  1 1 2   0   0  2.044552e+03  1.157784e+03  1.059089e+03  2.577271e+03 0.0 0.0 9.0
#pdf 2 21 4.501949e-01 3.084044e-01 5000.0 1.021215e-01 2.389786e-01
</event>
<event>
4 7 1.0 5000.0 7.905138e-03 7.739137e-02
21 -1 0 0 103 101  0.000000e+00  0.000000e+00  3.272693e+03  3.272693e+03 0.0 0.0 9.0
 2 -1 0 0 101   0  0.000000e+00  0.000000e+00 -1.869529e+03  1.869529e+03 0.0 0.0 9.0
 2  1 1 2 103   0 -1.036311e+02  9.335977e+02 -1.676923e+03  1.922086e+03 0.0022 0.0 9.0
22  1 1 2   0   0  1.036311e+02 -9.335977e+02  3.080087e+03  3.220136e+03 0.0 0.0 9.0
#pdf 21 2 5.034912e-01 2.876199e-01 5000.0 2.685277e-03 4.192981e-02
</event>
<event>
4 7 1.0 5000.0 7.905138e-03 7.739137e-02
21 -1 0 0 103 101  0.000000e+00  0.000000e+00  3.110755e+03  3.110755e+03 0.0 0.0 9.0
 2 -1 0 0 101   0  0.000000e+00  0.000000e+00 -2.000304e+03  2.000304e+03 0.0 0.0 9.0
 2  1 1 2 103   0 -1.070688e+03  5.119312e+02 -1.692553e+03  2.067168e+03 0.0022 0.0 9.0
22  1 1 2   0   0  1.070688e+03 -5.119312e+02  2.803003e+03  3.043891e+03 0.0 0.0 9.0
#pdf 21 2 4.785777e-01 3.077391e-01 5000.0 3.774314e-03 3.279660e-02
</event>
<event>
4 7 1.0 5000.0 7.905138e-03 7.739137e-02
 2 -1 0 0 101   0  0.000000e+00  0.000000e+00  1.934132e+03  1.934132e+03 0.0 0.0 9.0
21 -1 0 0 103 101  0.000000e+00  0.000000e+00 -2.921673e+03  2.921673e+03 0.0 0.0 9.0
22  1 1 2   0   0  9.696313e+01 -1.967345e+03  8.654446e+02  2.151474e+03 0.0 0.0 9.0
 2  1 1 2 103   0 -9.696313e+01  1.967345e+03 -1.852986e+03  2.704330e+03 0.0022 0.0 9.0
#pdf 2 21 2.975587e-01 4.494881e-01 5000.0 2.521932e-01 1.026276e-01
</event>
<event>
4 7 1.0 5000.0 7.905138e-03 7.739137e-02
21 -1 0 0 103 101  0.000000e+00  0.000000e+00  1.617356e+03  1.617356e+03 0.0 0.0 9.0
 2 -1 0 0 101   0  0.000000e+00  0.000000e+00 -3.874858e+03  3.874858e+03 0.0 0.0 9.0
 2  1 1 2 103   0  2.413100e+03 -4.939539e+02 -1.619300e+03  2.947741e+03 0.0022 0.0 9.0
22  1 1 2   0   0 -2.413100e+03  4.939539e+02 -6.382024e+02  2.544474e+03 0.0 0.0 9.0
#pdf 21 2 2.488240e-01 5.961320e-01 5000.0 6.770616e-02 6.824992e-04
</event>
<event>
4 7 1.0 5000.0 7.905138e-03 7.739137e-02
 2 -1 0 0 101   0  0.000000e+00  0.000000e+00  2.148760e+03  2.148760e+03 0.0 0.0 9.0
21 -1 0 0 103 101  0.000000e+00  0.000000e+00 -2.951660e+03  2.951660e+03 0.0 0.0 9.0
22  1 1 2   0   0  1.839471e+03 -1.712875e+03 -2.419397e+02  2.525100e+03 0.0 0.0 9.0
 2  1 1 2 103   0 -1.839471e+03  1.712875e+03 -5.609603e+02  2.575320e+03 0.0022 0.0 9.0
#pdf 2 21 3.305784e-01 4.541015e-01 5000.0 2.130673e-01 9.934347e-02
</event>
<event>
4 7 1.0 5000.0 7.905138e-03 7.739137e-02
21 -1 0 0 103 101  0.000000e+00  0.000000e+00  1.986738e+03  1.986738e+03 0.0 0.0 9.0
 2 -1 0 0 101   0  0.000000e+00  0.000000e+00 -3.093456e+03  3.093456e+03 0.0 0.0 9.0
22  1 1 2   0   0  1.379743e+03  1.317354e+03 -2.175601e+03  2.893501e+03 0.0 0.0 9.0
 2  1 1 2 103   0 -1.379743e+03 -1.317354e+03  1.068883e+03  2.186692e+03 0.0022 0.0 9.0
#pdf 21 2 3.056520e-01 4.759162e-01 5000.0 3.364441e-02 3.912239e-03
</event>
<event>
4 7 1.0 5000.0 7.905138e-03 7.739137e-02
21 -1 0 0 103 101  0.000000e+00  0.000000e+00  4.466135e+03  4.466135e+03 0.0 0.0 9.0
 2 -1 0 0 101   0  0.000000e+00  0.000000e+00 -1.381701e+03  1.381701e+03 0.0 0.0 9.0
22  1 1 2   0   0  1.562655e+03  6.075703e+02 -6.152828e+02  1.785947e+03 0.0 0.0 9.0
 2  1 1 2 103   0 -1.562655e+03 -6.075703e+02  3.699717e+03  4.061889e+03 0.0022 0.0 9.0
#pdf 21 2 6.870977e-01 2.125693e-01 5000.0 1.396227e-04 1.069702e-01
</event>
<event>
4 7 1.0 5000.0 7.905138e-03 7.739137e-02
21 -1 0 0 103 101  0.000000e+00  0.000000e+00  2.295706e+03  2.295706e+03 0.0 0.0 9.0
 2 -1 0 0 101   0  0.000000e+00  0.000000e+00 -2.740005e+03  2.740005e+03 0.0 0.0 9.0
 2  1 1 2 103   0 -1.631062e+03  4.124074e+02 -2.089487e+03  2.682610e+03 0.0022 0.0 9.0
22  1 1 2   0   0  1.631062e+03 -4.124074e+02  1.645188e+03  2.353101e+03 0.0 0.0 9.0
#pdf 21 2 3.531856e-01 4.215393e-01 5000.0 1.876463e-02 7.972085e-03
</event>
<event>
4 7 1.0 5000.0 7.905138e-03 7.739137e-02
21 -1 0 0 103 101  0.000000e+00  0.000000e+00  1.702905e+03  1.702905e+03 0.0 0.0 9.0
 2 -1 0 0 101   0  0.000000e+00  0.000000e+00 -3.779855e+03  3.779855e+03 0.0 0.0 9.0
22  1 1 2   0   0  2.220627e+03  6.284514e+00 -2.364277e+03  3.243613e+03 0.0 0.0 9.0
 2  1 1 2 103   0 -2.220627e+03 -6.284514e+00  2.873264e+02  2.239147e+03 0.0022 0.0 9.0
#pdf 21 2 2.619854e-01 5.815162e-01 5000.0 5.746462e-02 8.584703e-04
</event>
<event>
4 7 1.0 5000.0 7.905138e-03 7.739137e-02
21 -1 0 0 103 101  0.000000e+00  0.000000e+00  3.028021e+03  3.028021e+03 0.0 0.0 9.0
 2 -1 0 0 101   0  0.000000e+00  0.000000e+00 -2.076419e+03  2.076419e+03 0.0 0.0 9.0
 2  1 1 2 103   0 -3.100579e+02 -1.525749e+03 -1.524824e+03  2.179251e+03 0.0022 0.0 9.0
22  1 1 2   0   0  3.100579e+02  1.525749e+03  2.476425e+03  2.925189e+03 0.0 0.0 9.0
#pdf 21 2 4.658493e-01 3.194491e-01 5000.0 4.474892e-03 2.838388e-02
</event>
<event>
4 7 1.0 5000.0 7.905138e-03 7.739137e-02
21 -1 0 0 103 101  0.000000e+00  0.000000e+00  2.132054e+03  2.132054e+03 0.0 0.0 9.0
 2 -1 0 0 101   0  0.000000e+00  0.000000e+00 -2.971111e+03  2.971111e+03 0.0 0.0 9.0
22  1 1 2   0   0  5.937283e+02 -2.438502e+03 -2.278014e+02  2.520059e+03 0.0 0.0 9.0
 2  1 1 2 103   0 -5.937283e+02  2.438502e+03 -6.112559e+02  2.583106e+03 0.0022 0.0 9.0
#pdf 21 2 3.280083e-01 4.570941e-01 5000.0 2.556177e-02 5.026438e-03
</event>
<event>
4 7 1.0 5000.0 7.905138e-03 7.739137e-02
 2 -1 0 0 101   0  0.000000e+00  0.000000e+00  1.418227e+03  1.418227e+03 0.0 0.0 9.0
21 -1 0 0 103 101  0.000000e+00  0.000000e+00 -4.333636e+03  4.333636e+03 0.0 0.0 9.0
 2  1 1 2 103   0 -3.228120e+02 -2.454826e+03 -1.603066e+03  2.949609e+03 0.0022 0.0 9.0
22  1 1 2   0   0  3.228120e+02  2.454826e+03 -1.312343e+03  2.802253e+03 0.0 0.0 9.0
#pdf 2 21 2.181887e-01 6.667132e-01 5000.0 3.568968e-01 1.375131e-02
</event>
<event>
4 7 1.0 5000.0 7.905138e-03 7.739137e-02
21 -1 0 0 103 101  0.000000e+00  0.000000e+00  4.354305e+03  4.354305e+03 0.0 0.0 9.0
 2 -1 0 0 101   0  0.000000e+00  0.000000e+00 -1.436715e+03  1.436715e+03 0.0 0.0 9.0
 2  1 1 2 103   0 -1.448830e+03  5.345565e+02 -8.188914e+02  1.747982e+03 0.0022 0.0 9.0
22  1 1 2   0   0  1.448830e+03 -5.345565e+02  3.736481e+03  4.043037e+03 0.0 0.0 9.0
#pdf 21 2 6.698930e-01 2.210330e-01 5000.0 1.932058e-04 9.599758e-02
</event>
<event>
4 7 1.0 5000.0 7.905138e-03 7.739137e-02
21 -1 0 0 103 101  0.000000e+00  0.000000e+00  2.596042e+03  2.596042e+03 0.0 0.0 9.0
 2 -1 0 0 101   0  0.000000e+00  0.000000e+00 -2.137123e+03  2.137123e+03 0.0 0.0 9.0
 2  1 1 2 103   0 -2.060658e+03  7.405129e+02  1.101548e+03  2.451138e+03 0.0022 0.0 9.0
22  1 1 2   0   0  2.060658e+03 -7.405129e+02 -6.426287e+02  2.282026e+03 0.0 0.0 9.0
#pdf 21 2 3.993910e-01 3.287881e-01 5000.0 1.056036e-02 2.531907e-02
</event>
<event>
4 7 1.0 5000.0 7.905138e-03 7.739137e-02
 2 -1 0 0 101   0  0.000000e+00  0.000000e+00  1.810671e+03  1.810671e+03 0.0 0.0 9.0
21 -1 0 0 103 101  0.000000e+00  0.000000e+00 -3.414151e+03  3.414151e+03 0.0 0.0 9.0
 2  1 1 2 103   0  2.108584e+03 -5.872413e+02 -2.040914e+03  2.992709e+03 0.0022 0.0 9.0
22  1 1 2   0   0 -2.108584e+03  5.872413e+02  4.374339e+02  2.232113e+03 0.0 0.0 9.0
#pdf 2 21 2.785648e-01 5.252540e-01 5000.0 2.761103e-01 5.738799e-02
</event>
<event>
4 7 1.0 5000.0 7.905138e-03 7.739137e-02
 2 -1 0 0 101   0  0.000000e+00  0.000000e+00  1.315001e+03  1.315001e+03 0.0 0.0 9.0
21 -1 0 0 103 101  0.000000e+00  0.000000e+00 -4.876493e+03  4.876493e+03 0.0 0.0 9.0
22  1 1 2   0   0 -1.754220e+03  1.825407e+03 -1.849794e+03  3.135464e+03 0.0 0.0 9.0
 2  1 1 2 103   0  1.754220e+03 -1.825407e+03 -1.711698e+03  3.056029e+03 0.0022 0.0 9.0
#pdf 2 21 2.023078e-01 7.502296e-01 5000.0 3.788498e-01 4.227254e-03
</event>
<event>
4 7 1.0 5000.0 7.905138e-03 7.739137e-02
21 -1 0 0 103 101  0.000000e+00  0.000000e+00  1.421793e+03  1.421793e+03 0.0 0.0 9.0
 2 -1 0 0 101   0  0.000000e+00  0.000000e+00 -4.377259e+03  4.377259e+03 0.0 0.0 9.0
22  1 1 2   0   0 -1.985337e+03  7.296150e+02 -3.015123e+03  3.683051e+03 0.0 0.0 9.0
 2  1 1 2 103   0  1.985337e+03 -7.296150e+02  5.965648e+01  2.116000e+03 0.0022 0.0 9.0
#pdf 21 2 2.187373e-01 6.734245e-01 5000.0 9.886302e-02 1.809442e-04
</event>
<event>
4 7 1.0 5000.0 7.905138e-03 7.739137e-02
 2 -1 0 0 101   0  0.000000e+00  0.000000e+00  3.998091e+03  3.998091e+03 0.0 0.0 9.0
21 -1 0 0 103 101  0.000000e+00  0.000000e+00 -1.543657e+03  1.543657e+03 0.0 0.0 9.0
 2  1 1 2 103   0 -1.717893e+03  2.670720e+02 -7.520988e+02  1.894237e+03 0.0022 0.0 9.0
22  1 1 2   0   0  1.717893e+03 -2.670720e+02  3.206533e+03  3.647511e+03 0.0 0.0 9.0
#pdf 2 21 6.150909e-01 2.374857e-01 5000.0 2.470645e-02 3.304831e-01
</event>
<event>
4 7 1.0 5000.0 7.905138e-03 7.739137e-02
21 -1 0 0 103 101  0.000000e+00  0.000000e+00  2.433571e+03  2.433571e+03 0.0 0.0 9.0
 2 -1 0 0 101   0  0.000000e+00  0.000000e+00 -2.841843e+03  2.841843e+03 0.0 0.0 9.0
 2  1 1 2 103   0  2.991707e+02  2.611221e+03 -1.152934e+02  2.630831e+03 0.0022 0.0 9.0
22  1 1 2   0   0 -2.991707e+02 -2.611221e+03 -2.929785e+02  2.644582e+03 0.0 0.0 9.0
#pdf 21 2 3.743955e-01 4.372065e-01 5000.0 1.444037e-02 6.521669e-03
</event>
<event>
4 7 1.0 5000.0 7.905138e-03 7.739137e-02
 2 -1 0 0 101   0  0.000000e+00  0.000000e+00  3.577112e+03  3.577112e+03 0.0 0.0 9.0
21 -1 0 0 103 101  0.000000e+00  0.000000e+00 -1.756951e+03  1.756951e+03 0.0 0.0 9.0
22  1 1 2   0   0 -1.151387e+03  1.356050e+03  2.789296e+03  3.308283e+03 0.0 0.0 9.0
 2  1 1 2 103   0  1.151387e+03 -1.356050e+03 -9.691347e+02  2.025780e+03 0.0022 0.0 9.0
#pdf 2 21 5.503249e-01 2.703001e-01 5000.0 4.621035e-02 2.867966e-01
</event>
<event>
4 7 1.0 5000.0 7.905138e-03 7.739137e-02
21 -1 0 0 103 101  0.000000e+00  0.000000e+00  1.955138e+03  1.955138e+03 0.0 0.0 9.0
 2 -1 0 0 101   0  0.000000e+00  0.000000e+00 -3.197560e+03  3.197560e+03 0.0 0.0 9.0
 2  1 1 2 103   0  9.618869e+02  7.033830e+02  1.643728e+03  2.030225e+03 0.0022 0.0 9.0
22  1 1 2   0   0 -9.618869e+02 -7.033830e+02 -2.886149e+03  3.122472e+03 0.0 0.0 9.0
#pdf 21 2 3.007905e-01 4.919322e-01 5000.0 3.566711e-02 3.148561e-03
</event>
<event>
4 7 1.0 5000.0 7.905138e-03 7.739137e-02
21 -1 0 0 103 101  0.000000e+00  0.000000e+00  3.314657e+03  3.314657e+03 0.0 0.0 9.0
 2 -1 0 0 101   0  0.000000e+00  0.000000e+00 -1.886006e+03  1.886006e+03 0.0 0.0 9.0
22  1 1 2   0   0  2.333077e+03  4.986385e+02  1.492302e+03  2.814046e+03 0.0 0.0 9.0
 2  1 1 2 103   0 -2.333077e+03 -4.986385e+02 -6.365131e+01  2.386617e+03 0.0022 0.0 9.0
#pdf 21 2 5.099473e-01 2.901548e-01 5000.0 2.455242e-03 4.066295e-02
</event>
<event>
4 7 1.0 5000.0 7.905138e-03 7.739137e-02
21 -1 0 0 103 101  0.000000e+00  0.000000e+00  3.587531e+03  3.587531e+03 0.0 0.0 9.0
 2 -1 0 0 101   0  0.000000e+00  0.000000e+00 -1.731283e+03  1.731283e+03 0.0 0.0 9.0
22  1 1 2   0   0  1.123574e+03  1.991207e+03 -1.302410e+02  2.290041e+03 0.0 0.0 9.0
 2  1 1 2 103   0 -1.123574e+03 -1.991207e+03  1.986490e+03  3.028773e+03 0.0022 0.0 9.0
#pdf 21 2 5.519279e-01 2.663512e-01 5000.0 1.342738e-03 5.443881e-02
</event>
<event>
4 7 1.0 5000.0 7.905138e-03 7.739137e-02
21 -1 0 0 103 101  0.000000e+00  0.000000e+00  2.449620e+03  2.449620e+03 0.0 0.0 9.0
 2 -1 0 0 101   0  0.000000e+00  0.000000e+00 -2.540746e+03  2.540746e+03 0.0 0.0 9.0
22  1 1 2   0   0  1.394023e+03  8.360611e+00  2.023717e+03  2.457397e+03 0.0 0.0 9.0
 2  1 1 2 103   0 -1.394023e+03 -8.360611e+00 -2.114844e+03  2.532969e+03 0.0022 0.0 9.0
#pdf 21 2 3.768646e-01 3.908841e-01 5000.0 1.400992e-02 1.175197e-02
</event>
<event>
4 7 1.0 5000.0 7.905138e-03 7.739137e-02
21 -1 0 0 103 101  0.000000e+00  0.000000e+00  3.628537e+03  3.628537e+03 0.0 0.0 9.0
 2 -1 0 0 101   0  0.000000e+00  0.000000e+00 -1.709277e+03  1.709277e+03 0.0 0.0 9.0
 2  1 1 2 103   0  1.935100e+03 -1.382903e+03  1.683735e+02  2.384404e+03 0.0022 0.0 9.0
22  1 1 2   0   0 -1.935100e+03  1.382903e+03  1.750886e+03  2.953411e+03 0.0 0.0 9.0
#pdf 21 2 5.582365e-01 2.629658e-01 5000.0 1.224955e-03 5.676790e-02
</event>
<event>
4 7 1.0 5000.0 7.905138e-03 7.739137e-02
21 -1 0 0 103 101  0.000000e+00  0.000000e+00  3.351074e+03  3.351074e+03 0.0 0.0 9.0
 2 -1 0 0 101   0  0.000000e+00  0.000000e+00 -1.947515e+03  1.947515e+03 0.0 0.0 9.0
22  1 1 2   0   0  6.309738e+02 -8.693111e+02  3.105497e+03  3.286022e+03 0.0 0.0 9.0
 2  1 1 2 103   0 -6.309738e+02  8.693111e+02 -1.701938e+03  2.012566e+03 0.0022 0.0 9.0
#pdf 21 2 5.155498e-01 2.996176e-01 5000.0 2.270163e-03 3.618566e-02
</event>
<event>
4 7 1.0 5000.0 7.905138e-03 7.739137e-02
 2 -1 0 0 101   0  0.000000e+00  0.000000e+00  4.752434e+03  4.752434e+03 0.0 0.0 9.0
21 -1 0 0 103 101  0.000000e+00  0.000000e+00 -1.309063e+03  1.309063e+03 0.0 0.0 9.0
 2  1 1 2 103   0 -1.727302e+03  1.784306e+03  2.003829e+03  3.191026e+03 0.0022 0.0 9.0
22  1 1 2   0   0  1.727302e+03 -1.784306e+03  1.439542e+03  2.870470e+03 0.0 0.0 9.0
#pdf 2 21 7.311436e-01 2.013943e-01 5000.0 5.716660e-03 3.801054e-01
</event>
<event>
4 7 1.0 5000.0 7.905138e-03 7.739137e-02
21 -1 0 0 103 101  0.000000e+00  0.000000e+00  3.399071e+03  3.399071e+03 0.0 0.0 9.0
 2 -1 0 0 101   0  0.000000e+00  0.000000e+00 -1.846334e+03  1.846334e+03 0.0 0.0 9.0
22  1 1 2   0   0  3.654450e+02 -2.394855e+03  1.444217e+03  2.820398e+03 0.0 0.0 9.0
 2  1 1 2 103   0 -3.654450e+02  2.394855e+03  1.085203e+02  2.425007e+03 0.0022 0.0 9.0
#pdf 21 2 5.229341e-01 2.840513e-01 5000.0 2.045081e-03 4.378787e-02
</event>
<event>
4 7 1.0 5000.0 7.905138e-03 7.739137e-02
21 -1 0 0 103 101  0.000000e+00  0.000000e+00  4.279229e+03  4.279229e+03 0.0 0.0 9.0
 2 -1 0 0 101   0  0.000000e+00  0.000000e+00 -1.454957e+03  1.454957e+03 0.0 0.0 9.0
22  1 1 2   0   0 -1.110650e+03 -2.583019e+02  3.962333e+03  4.123148e+03 0.0 0.0 9.0
 2  1 1 2 103   0  1.110650e+03  2.583019e+02 -1.138061e+03  1.611038e+03 0.0022 0.0 9.0
#pdf 21 2 6.583430e-01 2.238395e-01 5000.0 2.389916e-04 9.260966e-02
</event>
<event>
4 7 1.0 5000.0 7.905138e-03 7.739137e-02
 2 -1 0 0 101   0  0.000000e+00  0.000000e+00  2.771307e+03  2.771307e+03 0.0 0.0 9.0
21 -1 0 0 103 101  0.000000e+00  0.000000e+00 -2.268450e+03  2.268450e+03 0.0 0.0 9.0
 2  1 1 2 103   0 -1.929336e+03  1.550720e+03 -1.499521e+02  2.479830e+03 0.0022 0.0 9.0
22  1 1 2   0   0  1.929336e+03 -1.550720e+03  6.528089e+02  2.559927e+03 0.0 0.0 9.0
#pdf 2 21 4.263549e-01 3.489923e-01 5000.0 1.202258e-01 1.927480e-01
</event>
<event>
4 7 1.0 5000.0 7.905138e-03 7.739137e-02
21 -1 0 0 103 101  0.000000e+00  0.000000e+00  1.449218e+03  1.449218e+03 0.0 0.0 9.0
 2 -1 0 0 101   0  0.000000e+00  0.000000e+00 -4.464684e+03  4.464684e+03 0.0 0.0 9.0
 2  1 1 2 103   0 -2.356884e+02  1.772396e+03  5.954597e+02  1.884545e+03 0.0022 0.0 9.0
22  1 1 2   0   0  2.356884e+02 -1.772396e+03 -3.610926e+03  4.029357e+03 0.0 0.0 9.0
#pdf 21 2 2.229567e-01 6.868745e-01 5000.0 9.366165e-02 1.402231e-04
</event>
<event>
4 7 1.0 5000.0 7.905138e-03 7.739137e-02
21 -1 0 0 103 101  0.000000e+00  0.000000e+00  1.922543e+03  1.922543e+03 0.0 0.0 9.0
 2 -1 0 0 101   0  0.000000e+00  0.000000e+00 -3.253319e+03  3.253319e+03 0.0 0.0 9.0
22  1 1 2   0   0 -1.302800e+03 -7.689368e+02 -2.726174e+03  3.117784e+03 0.0 0.0 9.0
 2  1 1 2 103   0  1.302800e+03  7.689368e+02  1.395398e+03  2.058079e+03 0.0022 0.0 9.0
#pdf 21 2 2.957759e-01 5.005106e-01 5000.0 3.796842e-02 2.798476e-03
</event>
<event>
4 7 1.0 5000.0 7.905138e-03 7.739137e-02
21 -1 0 0 103 101  0.000000e+00  0.000000e+00  1.913707e+03  1.913707e+03 0.0 0.0 9.0
 2 -1 0 0 101   0  0.000000e+00  0.000000e+00 -3.075108e+03  3.075108e+03 0.0 0.0 9.0
 2  1 1 2 103   0  1.412388e+03  1.853793e+03 -1.273126e+03  2.655605e+03 0.0022 0.0 9.0
22  1 1 2   0   0 -1.412388e+03 -1.853793e+03  1.117250e+02  2.333210e+03 0.0 0.0 9.0
#pdf 21 2 2.944165e-01 4.730936e-01 5000.0 3.860856e-02 4.063324e-03
</event>
<event>
4 7 1.0 5000.0 7.905138e-03 7.739137e-02
21 -1 0 0 103 101  0.000000e+00  0.000000e+00  2.578372e+03  2.578372e+03 0.0 0.0 9.0
 2 -1 0 0 101   0  0.000000e+00  0.000000e+00 -2.366781e+03  2.366781e+03 0.0 0.0 9.0
 2  1 1 2 103   0  1.133661e+03 -3.458732e+02  2.275183e+03  2.565399e+03 0.0022 0.0 9.0
22  1 1 2   0   0 -1.133661e+03  3.458732e+02 -2.063592e+03  2.379754e+03 0.0 0.0 9.0
#pdf 21 2 3.966726e-01 3.641201e-01 5000.0 1.092734e-02 1.639821e-02
</event>
<event>
4 7 1.0 5000.0 7.905138e-03 7.739137e-02
 2 -1 0 0 101   0  0.000000e+00  0.000000e+00  3.260652e+03  3.260652e+03 0.0 0.0 9.0
21 -1 0 0 103 101  0.000000e+00  0.000000e+00 -1.792216e+03  1.792216e+03 0.0 0.0 9.0
 2  1 1 2 103   0 -1.070367e+03 -1.778259e+03  2.029435e+03  2.902843e+03 0.0022 0.0 9.0
22  1 1 2   0   0  1.070367e+03  1.778259e+03 -5.609996e+02  2.150026e+03 0.0 0.0 9.0
#pdf 2 21 5.016388e-01 2.757256e-01 5000.0 6.954804e-02 2.797619e-01
</event>
<event>
4 7 1.0 5000.0 7.905138e-03 7.739137e-02
21 -1 0 0 103 101  0.000000e+00  0.000000e+00  1.722562e+03  1.722562e+03 0.0 0.0 9.0
 2 -1 0 0 101   0  0.000000e+00  0.000000e+00 -3.422878e+03  3.422878e+03 0.0 0.0 9.0
22  1 1 2   0   0  2.189795e+03 -9.605188e+02 -1.297571e+03  2.720568e+03 0.0 0.0 9.0
 2  1 1 2 103   0 -2.189795e+03  9.605188e+02 -4.027454e+02  2.424872e+03 0.0022 0.0 9.0
#pdf 21 2 2.650095e-01 5.265967e-01 5000.0 5.534878e-02 1.941867e-03
</event>
<event>
4 7 1.0 5000.0 7.905138e-03 7.739137e-02
 2 -1 0 0 101   0  0.000000e+00  0.000000e+00  1.420475e+03  1.420475e+03 0.0 0.0 9.0
21 -1 0 0 103 101  0.000000e+00  0.000000e+00 -4.184650e+03  4.184650e+03 0.0 0.0 9.0
 2  1 1 2 103   0 -9.776113e+02  1.680627e+02 -3.942202e+03  4.065086e+03 0.0022 0.0 9.0
22  1 1 2   0   0  9.776113e+02 -1.680627e+02  1.178027e+03  1.540038e+03 0.0 0.0 9.0
#pdf 2 21 2.185346e-01 6.437923e-01 5000.0 3.564220e-01 1.803579e-02
</event>
<event>
4 7 1.0 5000.0 7.905138e-03 7.739137e-02
 2 -1 0 0 101   0  0.000000e+00  0.000000e+00  3.880026e+03  3.880026e+03 0.0 0.0 9.0
21 -1 0 0 103 101  0.000000e+00  0.000000e+00 -1.502486e+03  1.502486e+03 0.0 0.0 9.0
22  1 1 2   0   0 -1.530516e+03 -1.972430e+02  3.258602e+03  3.605533e+03 0.0 0.0 9.0
 2  1 1 2 103   0  1.530516e+03  1.972430e+02 -8.810614e+02  1.776978e+03 0.0022 0.0 9.0
#pdf 2 21 5.969271e-01 2.311516e-01 5000.0 2.976742e-02 3.391503e-01
</event>
<event>
4 7 1.0 5000.0 7.905138e-03 7.739137e-02
 2 -1 0 0 101   0  0.000000e+00  0.000000e+00  1.438610e+03  1.438610e+03 0.0 0.0 9.0
21 -1 0 0 103 101  0.000000e+00  0.000000e+00 -4.060972e+03  4.060972e+03 0.0 0.0 9.0
 2  1 1 2 103   0  2.133449e+03  1.067906e+03 -8.703845e+02  2.539606e+03 0.0022 0.0 9.0
22  1 1 2   0   0 -2.133449e+03 -1.067906e+03 -1.751977e+03  2.959975e+03 0.0 0.0 9.0
#pdf 2 21 2.213246e-01 6.247649e-01 5000.0 3.525976e-01 2.228327e-02
</event>
<event>
4 7 1.0 5000.0 7.905138e-03 7.739137e-02
21 -1 0 0 103 101  0.000000e+00  0.000000e+00  2.033707e+03  2.033707e+03 0.0 0.0 9.0
 2 -1 0 0 101   0  0.000000e+00  0.000000e+00 -2.593506e+03  2.593506e+03 0.0 0.0 9.0
 2  1 1 2 103   0 -3.402299e+02 -7.309263e+02  1.886459e+03  2.051521e+03 0.0022 0.0 9.0
22  1 1 2   0   0  3.402299e+02  7.309263e+02 -2.446258e+03  2.575692e+03 0.0 0.0 9.0
#pdf 21 2 3.128779e-01 3.990009e-01 5000.0 3.077968e-02 1.061228e-02
</event>
<event>
4 7 1.0 5000.0 7.905138e-03 7.739137e-02
 2 -1 0 0 101   0  0.000000e+00  0.000000e+00  3.995869e+03  3.995869e+03 0.0 0.0 9.0
21 -1 0 0 103 101  0.000000e+00  0.000000e+00 -1.552382e+03  1.552382e+03 0.0 0.0 9.0
22  1 1 2   0   0 -1.192322e+02  7.280961e+02 -1.427870e+03  1.607219e+03 0.0 0.0 9.0
 2  1 1 2 103   0  1.192322e+02 -7.280961e+02  3.871356e+03  3.941033e+03 0.0022 0.0 9.0
#pdf 2 21 6.147491e-01 2.388281e-01 5000.0 2.479544e-02 3.286568e-01
</event>
<event>
4 7 1.0 5000.0 7.905138e-03 7.739137e-02
 2 -1 0 0 101   0  0.000000e+00  0.000000e+00  2.818215e+03  2.818215e+03 0.0 0.0 9.0
21 -1 0 0 103 101  0.000000e+00  0.000000e+00 -2.231425e+03  2.231425e+03 0.0 0.0 9.0
 2  1 1 2 103   0  2.265932e+03 -2.109654e+02  1.353995e+03  2.648067e+03 0.0022 0.0 9.0
22  1 1 2   0   0 -2.265932e+03  2.109654e+02 -7.672046e+02  2.401574e+03 0.0 0.0 9.0
#pdf 2 21 4.335716e-01 3.432961e-01 5000.0 1.145462e-01 1.989163e-01
</event>
<event>
4 7 1.0 5000.0 7.905138e-03 7.739137e-02
 2 -1 0 0 101   0  0.000000e+00  0.000000e+00  1.122272e+03  1.122272e+03 0.0 0.0 9.0
21 -1 0 0 103 101  0.000000e+00  0.000000e+00 -5.548868e+03  5.548868e+03 0.0 0.0 9.0
22  1 1 2   0   0 -6.959303e+02 -7.306392e+02 -5.264027e+03  5.359863e+03 0.0 0.0 9.0
 2  1 1 2 103   0  6.959303e+02  7.306392e+02  8.374314e+02  1.311276e+03 0.0022 0.0 9.0
#pdf 2 21 1.726572e-01 8.536719e-01 5000.0 4.195334e-01 4.731235e-04
</event>
<event>
4 7 1.0 5000.0 7.905138e-03 7.739137e-02
 2 -1 0 0 101   0  0.000000e+00  0.000000e+00  2.431456e+03  2.431456e+03 0.0 0.0 9.0
21 -1 0 0 103 101  0.000000e+00  0.000000e+00 -2.579672e+03  2.579672e+03 0.0 0.0 9.0
 2  1 1 2 103   0  7.176820e+02  3.670735e+02  2.298121e+03  2.435400e+03 0.0022 0.0 9.0
22  1 1 2   0   0 -7.176820e+02 -3.670735e+02 -2.446337e+03  2.575728e+03 0.0 0.0 9.0
#pdf 2 21 3.740701e-01 3.968726e-01 5000.0 1.669345e-01 1.453931e-01
</event>
<event>
4 7 1.0 5000.0 7.905138e-03 7.739137e-02
21 -1 0 0 103 101  0.000000e+00  0.000000e+00  2.035556e+03  2.035556e+03 0.0 0.0 9.0
 2 -1 0 0 101   0  0.000000e+00  0.000000e+00 -3.075995e+03  3.075995e+03 0.0 0.0 9.0
 2  1 1 2 103   0  3.420567e+02 -1.959825e+03 -2.070382e+03  2.871306e+03 0.0022 0.0 9.0
22  1 1 2   0   0 -3.420567e+02  1.959825e+03  1.029943e+03  2.240245e+03 0.0 0.0 9.0
#pdf 21 2 3.131625e-01 4.732300e-01 5000.0 3.067136e-02 4.055904e-03
</event>
<event>
4 7 1.0 5000.0 7.905138e-03 7.739137e-02
21 -1 0 0 103 101  0.000000e+00  0.000000e+00  2.527337e+03  2.527337e+03 0.0 0.0 9.0
 2 -1 0 0 101   0  0.000000e+00  0.000000e+00 -1.755124e+03  1.755124e+03 0.0 0.0 9.0
22  1 1 2   0   0 -1.487465e+03 -1.237629e+03  1.231537e+03  2.293678e+03 0.0 0.0 9.0
 2  1 1 2 103   0  1.487465e+03  1.237629e+03 -4.593230e+02  1.988782e+03 0.0022 0.0 9.0
#pdf 21 2 3.888211e-01 2.700190e-01 5000.0 1.206140e-02 5.203332e-02
</event>
<event>
4 7 1.0 5000.0 7.905138e-03 7.739137e-02
 2 -1 0 0 101   0  0.000000e+00  0.000000e+00  1.844988e+03  1.844988e+03 0.0 0.0 9.0
21 -1 0 0 103 101  0.000000e+00  0.000000e+00 -3.230053e+03  3.230053e+03 0.0 0.0 9.0
 2  1 1 2 103   0  1.035256e+03 -8.517209e+02  1.428126e+03  1.958756e+03 0.0022 0.0 9.0
22  1 1 2   0   0 -1.035256e+03  8.517209e+02 -2.813192e+03  3.116285e+03 0.0 0.0 9.0
#pdf 2 21 2.838443e-01 4.969313e-01 5000.0 2.693782e-01 7.217420e-02
</event>
<event>
4 7 1.0 5000.0 7.905138e-03 7.739137e-02
 2 -1 0 0 101   0  0.000000e+00  0.000000e+00  3.098904e+03  3.098904e+03 0.0 0.0 9.0
21 -1 0 0 103 101  0.000000e+00  0.000000e+00 -2.002008e+03  2.002008e+03 0.0 0.0 9.0
 2  1 1 2 103   0  1.547492e+03  1.488294e+03  1.841344e+03  2.828479e+03 0.0022 0.0 9.0
22  1 1 2   0   0 -1.547492e+03 -1.488294e+03 -7.444474e+02  2.272433e+03 0.0 0.0 9.0
#pdf 2 21 4.767545e-01 3.080012e-01 5000.0 8.422475e-02 2.394637e-01
</event>
<event>
4 7 1.0 5000.0 7.905138e-03 7.739137e-02
 2 -1 0 0 101   0  0.000000e+00  0.000000e+00  2.858645e+03  2.858645e+03 0.0 0.0 9.0
21 -1 0 0 103 101  0.000000e+00  0.000000e+00 -1.636720e+03  1.636720e+03 0.0 0.0 9.0
22  1 1 2   0   0 -1.471738e+03  1.495953e+03  1.155795e+03  2.395778e+03 0.0 0.0 9.0
 2  1 1 2 103   0  1.471738e+03 -1.495953e+03  6.612959e+01  2.099587e+03 0.0022 0.0 9.0
#pdf 2 21 4.397915e-01 2.518031e-01 5000.0 1.097930e-01 3.111812e-01
</event>
<event>
4 7 1.0 5000.0 7.905138e-03 7.739137e-02
21 -1 0 0 103 101  0.000000e+00  0.000000e+00  2.469449e+03  2.469449e+03 0.0 0.0 9.0
 2 -1 0 0 101   0  0.000000e+00  0.000000e+00 -2.557050e+03  2.557050e+03 0.0 0.0 9.0
22  1 1 2   0   0 -3.090333e+02  2.155354e+03  1.210764e+03  2.491385e+03 0.0 0.0 9.0
 2  1 1 2 103   0  3.090333e+02 -2.155354e+03 -1.298364e+03  2.535114e+03 0.0022 0.0 9.0
#pdf 21 2 3.799153e-01 3.933922e-01 5000.0 1.349003e-02 1.138709e-02
</event>
<event>
4 7 1.0 5000.0 7.905138e-03 7.739137e-02
21 -1 0 0 103 101  0.000000e+00  0.000000e+00  1.778623e+03  1.778623e+03 0.0 0.0 9.0
 2 -1 0 0 101   0  0.000000e+00  0.000000e+00 -2.857719e+03  2.857719e+03 0.0 0.0 9.0
 2  1 1 2 103   0 -1.185059e+03  1.894060e+03 -2.294119e+02  2.245988e+03 0.0022 0.0 9.0
22  1 1 2   0   0  1.185059e+03 -1.894060e+03 -8.496845e+02  2.390354e+03 0.0 0.0 9.0
#pdf 21 2 2.736343e-01 4.396491e-01 5000.0 4.977179e-02 6.319291e-03
</event>
<event>
4 7 1.0 5000.0 7.905138e-03 7.739137e-02
 2 -1 0 0 101   0  0.000000e+00  0.000000e+00  3.163415e+03  3.163415e+03 0.0 0.0 9.0
21 -1 0 0 103 101  0.000000e+00  0.000000e+00 -1.909888e+03  1.909888e+03 0.0 0.0 9.0
22  1 1 2   0   0  1.059977e+03 -2.215101e+03  7.376588e+02  2.564052e+03 0.0 0.0 9.0
 2  1 1 2 103   0 -1.059977e+03  2.215101e+03  5.158676e+02  2.509251e+03 0.0022 0.0 9.0
#pdf 2 21 4.866792e-01 2.938290e-01 5000.0 7.813502e-02 2.568090e-01
</event>
<event>
4 7 1.0 5000.0 7.905138e-03 7.739137e-02
21 -1 0 0 103 101  0.000000e+00  0.000000e+00  1.183357e+03  1.183357e+03 0.0 0.0 9.0
 2 -1 0 0 101   0  0.000000e+00  0.000000e+00 -5.383867e+03  5.383867e+03 0.0 0.0 9.0
 2  1 1 2 103   0 -1.048626e+03 -2.058435e+03 -7.772453e+02  2.437393e+03 0.0022 0.0 9.0
22  1 1 2   0   0  1.048626e+03  2.058435e+03 -3.423265e+03  4.129832e+03 0.0 0.0 9.0
#pdf 21 2 1.820550e-01 8.282873e-01 5000.0 1.596529e-01 4.344816e-06
</event>
<event>
4 7 1.0 5000.0 7.905138e-03 7.739137e-02
 2 -1 0 0 101   0  0.000000e+00  0.000000e+00  3.200592e+03  3.200592e+03 0.0 0.0 9.0
21 -1 0 0 103 101  0.000000e+00  0.000000e+00 -1.808094e+03  1.808094e+03 0.0 0.0 9.0
22  1 1 2   0   0 -1.602392e+03  1.777821e+03  9.483953e+02  2.574444e+03 0.0 0.0 9.0
 2  1 1 2 103   0  1.602392e+03 -1.777821e+03  4.441024e+02  2.434242e+03 0.0022 0.0 9.0
#pdf 2 21 4.923987e-01 2.781683e-01 5000.0 7.476862e-02 2.766189e-01
</event>
<event>
4 7 1.0 5000.0 7.905138e-03 7.739137e-02
 2 -1 0 0 101   0  0.000000e+00  0.000000e+00  1.440589e+03  1.440589e+03 0.0 0.0 9.0
21 -1 0 0 103 101  0.000000e+00  0.000000e+00 -4.279009e+03  4.279009e+03 0.0 0.0 9.0
 2  1 1 2 103   0  1.099757e+03  2.121435e+03 -2.195606e+03  3.245095e+03 0.0022 0.0 9.0
22  1 1 2   0   0 -1.099757e+03 -2.121435e+03 -6.428144e+02  2.474503e+03 0.0 0.0 9.0
#pdf 2 21 2.216290e-01 6.583091e-01 5000.0 3.521808e-01 1.523447e-02
</event>
<event>
4 7 1.0 5000.0 7.905138e-03 7.739137e-02
 2 -1 0 0 101   0  0.000000e+00  0.000000e+00  2.080658e+03  2.080658e+03 0.0 0.0 9.0
21 -1 0 0 103 101  0.000000e+00  0.000000e+00 -2.873188e+03  2.873188e+03 0.0 0.0 9.0
 2  1 1 2 103   0 -1.242004e+03 -9.985442e+02 -2.274768e+03  2.777451e+03 0.0022 0.0 9.0
22  1 1 2   0   0  1.242004e+03  9.985442e+02  1.482238e+03  2.176395e+03 0.0 0.0 9.0
#pdf 2 21 3.201012e-01 4.420289e-01 5000.0 2.251301e-01 1.081103e-01
</event>
<event>
4 7 1.0 5000.0 7.905138e-03 7.739137e-02
21 -1 0 0 103 101  0.000000e+00  0.000000e+00  1.945672e+03  1.945672e+03 0.0 0.0 9.0
 2 -1 0 0 101   0  0.000000e+00  0.000000e+00 -3.128885e+03  3.128885e+03 0.0 0.0 9.0
 2  1 1 2 103   0 -1.209917e+03  1.978575e+03  2.743578e+02  2.335365e+03 0.0022 0.0 9.0
22  1 1 2   0   0  1.209917e+03 -1.978575e+03 -1.457571e+03  2.739192e+03 0.0 0.0 9.0
#pdf 21 2 2.993341e-01 4.813669e-01 5000.0 3.631623e-02 3.634331e-03
</event>
<event>
4 7 1.0 5000.0 7.905138e-03 7.739137e-02
 2 -1 0 0 101   0  0.000000e+00  0.000000e+00  1.848586e+03  1.848586e+03 0.0 0.0 9.0
21 -1 0 0 103 101  0.000000e+00  0.000000e+00 -3.047564e+03  3.047564e+03 0.0 0.0 9.0
22  1 1 2   0   0 -1.615428e+03  7.223504e+02  1.032048e+03  2.048541e+03 0.0 0.0 9.0
 2  1 1 2 103   0  1.615428e+03 -7.223504e+02 -2.231026e+03  2.847608e+03 0.0022 0.0 9.0
#pdf 2 21 2.843978e-01 4.688559e-01 5000.0 2.686754e-01 8.930384e-02
</event>
<event>
4 7 1.0 5000.0 7.905138e-03 7.739137e-02
21 -1 0 0 103 101  0.000000e+00  0.000000e+00  3.027147e+03  3.027147e+03 0.0 0.0 9.0
 2 -1 0 0 101   0  0.000000e+00  0.000000e+00 -2.004565e+03  2.004565e+03 0.0 0.0 9.0
22  1 1 2   0   0  5.303838e+02  2.330607e+03 -9.729478e+01  2.392175e+03 0.0 0.0 9.0
 2  1 1 2 103   0 -5.303838e+02 -2.330607e+03  1.119877e+03  2.639538e+03 0.0022 0.0 9.0
#pdf 21 2 4.657150e-01 3.083946e-01 5000.0 4.482862e-03 3.253342e-02
</event>
<event>
4 7 1.0 5000.0 7.905138e-03 7.739137e-02
 2 -1 0 0 101   0  0.000000e+00  0.000000e+00  2.993550e+03  2.993550e+03 0.0 0.0 9.0
21 -1 0 0 103 101  0.000000e+00  0.000000e+00 -2.083133e+03  2.083133e+03 0.0 0.0 9.0
 2  1 1 2 103   0 -2.436993e+03 -1.576544e+02  9.855040e+02  2.633441e+03 0.0022 0.0 9.0
22  1 1 2   0   0  2.436993e+03  1.576544e+02 -7.508692e+01  2.443242e+03 0.0 0.0 9.0
#pdf 2 21 4.605461e-01 3.204819e-01 5000.0 9.485964e-02 2.246861e-01
</event>
<event>
4 7 1.0 5000.0 7.905138e-03 7.739137e-02
21 -1 0 0 103 101  0.000000e+00  0.000000e+00  4.053540e+03  4.053540e+03 0.0 0.0 9.0
 2 -1 0 0 101   0  0.000000e+00  0.000000e+00 -1.524408e+03  1.524408e+03 0.0 0.0 9.0
22  1 1 2   0   0 -1.587934e+03  1.049412e+03 -5.293219e+02  1.975596e+03 0.0 0.0 9.0
 2  1 1 2 103   0  1.587934e+03 -1.049412e+03  3.058453e+03  3.602351e+03 0.0022 0.0 9.0
#pdf 21 2 6.236215e-01 2.345243e-01 5000.0 4.362840e-04 8.094724e-02
</event>
<event>
4 7 1.0 5000.0 7.905138e-03 7.739137e-02
 2 -1 0 0 101   0  0.000000e+00  0.000000e+00  1.964582e+03  1.964582e+03 0.0 0.0 9.0
21 -1 0 0 103 101  0.000000e+00  0.000000e+00 -3.197816e+03  3.197816e+03 0.0 0.0 9.0
22  1 1 2   0   0 -5.734366e+02  8.492642e+02  1.739006e+03  2.018470e+03 0.0 0.0 9.0
 2  1 1 2 103   0  5.734366e+02 -8.492642e+02 -2.972240e+03  3.143929e+03 0.0022 0.0 9.0
#pdf 2 21 3.022434e-01 4.919717e-01 5000.0 2.464510e-01 7.501638e-02
</event>
<event>
4 7 1.0 5000.0 7.905138e-03 7.739137e-02
 2 -1 0 0 101   0  0.000000e+00  0.000000e+00  1.636576e+03  1.636576e+03 0.0 0.0 9.0
21 -1 0 0 103 101  0.000000e+00  0.000000e+00 -3.733142e+03  3.733142e+03 0.0 0.0 9.0
 2  1 1 2 103   0 -9.781016e+02  7.116956e+02 -3.389671e+03  3.599036e+03 0.0022 0.0 9.0
22  1 1 2   0   0  9.781016e+02 -7.116956e+02  1.293105e+03  1.770682e+03 0.0 0.0 9.0
#pdf 2 21 2.517810e-01 5.743295e-01 5000.0 3.112108e-01 3.708392e-02
</event>
<event>
4 7 1.0 5000.0 7.905138e-03 7.739137e-02
21 -1 0 0 103 101  0.000000e+00  0.000000e+00  2.990403e+03  2.990403e+03 0.0 0.0 9.0
 2 -1 0 0 101   0  0.000000e+00  0.000000e+00 -1.900437e+03  1.900437e+03 0.0 0.0 9.0
22  1 1 2   0   0 -1.394956e+03 -9.281271e+02 -1.194569e+03  2.057746e+03 0.0 0.0 9.0
 2  1 1 2 103   0  1.394956e+03  9.281271e+02  2.284535e+03  2.833094e+03 0.0022 0.0 9.0
#pdf 21 2 4.600620e-01 2.923749e-01 5000.0 4.831514e-03 3.958258e-02
</event>
<event>
4 7 1.0 5000.0 7.905138e-03 7.739137e-02
 2 -1 0 0 101   0  0.000000e+00  0.000000e+00  3.257390e+03  3.257390e+03 0.0 0.0 9.0
21 -1 0 0 103 101  0.000000e+00  0.000000e+00 -1.892816e+03  1.892816e+03 0.0 0.0 9.0
 2  1 1 2 103   0  9.575575e+02  4.565653e+02  3.010552e+03  3.191989e+03 0.0022 0.0 9.0
22  1 1 2   0   0 -9.575575e+02 -4.565653e+02 -1.645979e+03  1.958217e+03 0.0 0.0 9.0
#pdf 2 21 5.011369e-01 2.912025e-01 5000.0 6.982478e-02 2.600889e-01
</event>
<event>
4 7 1.0 5000.0 7.905138e-03 7.739137e-02
21 -1 0 0 103 101  0.000000e+00  0.000000e+00  1.730383e+03  1.730383e+03 0.0 0.0 9.0
 2 -1 0 0 101   0  0.000000e+00  0.000000e+00 -3.766296e+03  3.766296e+03 0.0 0.0 9.0
22  1 1 2   0   0 -1.497306e+03 -1.805156e+03 -2.103437e+03  3.150391e+03 0.0 0.0 9.0
 2  1 1 2 103   0  1.497306e+03  1.805156e+03  6.752430e+01  2.346289e+03 0.0022 0.0 9.0
#pdf 21 2 2.662128e-01 5.794302e-01 5000.0 5.453190e-02 8.865296e-04
</event>
<event>
4 7 1.0 5000.0 7.905138e-03 7.739137e-02
21 -1 0 0 103 101  0.000000e+00  0.000000e+00  5.114072e+03  5.114072e+03 0.0 0.0 9.0
 2 -1 0 0 101   0  0.000000e+00  0.000000e+00 -1.252443e+03  1.252443e+03 0.0 0.0 9.0
22  1 1 2   0   0 -8.770182e+02 -3.305068e+02  4.887750e+03  4.976796e+03 0.0 0.0 9.0
 2  1 1 2 103   0  8.770182e+02  3.305068e+02 -1.026121e+03  1.389719e+03 0.0022 0.0 9.0
#pdf 21 2 7.867803e-01 1.926836e-01 5000.0 1.471180e-05 1.384131e-01
</event>
<event>
4 7 1.0 5000.0 7.905138e-03 7.739137e-02
 2 -1 0 0 101   0  0.000000e+00  0.000000e+00  2.537293e+03  2.537293e+03 0.0 0.0 9.0
21 -1 0 0 103 101  0.000000e+00  0.000000e+00 -2.703002e+03  2.703002e+03 0.0 0.0 9.0
22  1 1 2   0   0  2.060404e+03 -1.615154e+03 -1.486122e+02  2.622227e+03 0.0 0.0 9.0
 2  1 1 2 103   0 -2.060404e+03  1.615154e+03 -1.709603e+01  2.618068e+03 0.0022 0.0 9.0
#pdf 2 21 3.903528e-01 4.158464e-01 5000.0 1.513691e-01 1.288436e-01
</event>
<event>
4 7 1.0 5000.0 7.905138e-03 7.739137e-02
 2 -1 0 0 101   0  0.000000e+00  0.000000e+00  2.117243e+03  2.117243e+03 0.0 0.0 9.0
21 -1 0 0 103 101  0.000000e+00  0.000000e+00 -3.179845e+03  3.179845e+03 0.0 0.0 9.0
22  1 1 2   0   0 -3.654236e+02  1.587085e+03  1.530544e+03  2.234935e+03 0.0 0.0 9.0
 2  1 1 2 103   0  3.654236e+02 -1.587085e+03 -2.593146e+03  3.062153e+03 0.0022 0.0 9.0
#pdf 2 21 3.257297e-01 4.892070e-01 5000.0 2.186076e-01 7.663447e-02
</event>
<event>
4 7 1.0 5000.0 7.905138e-03 7.739137e-02
21 -1 0 0 103 101  0.000000e+00  0.000000e+00  2.865109e+03  2.865109e+03 0.0 0.0 9.0
 2 -1 0 0 101   0  0.000000e+00  0.000000e+00 -1.837317e+03  1.837317e+03 0.0 0.0 9.0
22  1 1 2   0   0 -1.474534e+02  1.224470e+03 -1.468735e+03  1.917877e+03 0.0 0.0 9.0
 2  1 1 2 103   0  1.474534e+02 -1.224470e+03  2.496527e+03  2.784549e+03 0.0022 0.0 9.0
#pdf 21 2 4.407860e-01 2.826641e-01 5000.0 6.226449e-03 4.453808e-02
</event>
<event>
4 7 1.0 5000.0 7.905138e-03 7.739137e-02
 2 -1 0 0 101   0  0.000000e+00  0.000000e+00  1.873813e+03  1.873813e+03 0.0 0.0 9.0
21 -1 0 0 103 101  0.000000e+00  0.000000e+00 -3.047043e+03  3.047043e+03 0.0 0.0 9.0
 2  1 1 2 103   0  1.048808e+03 -1.837136e+03  5.574688e+02  2.187656e+03 0.0022 0.0 9.0
22  1 1 2   0   0 -1.048808e+03  1.837136e+03 -1.730698e+03  2.733200e+03 0.0 0.0 9.0
#pdf 2 21 2.882790e-01 4.687758e-01 5000.0 2.637644e-01 8.935638e-02
</event>
<event>
4 7 1.0 5000.0 7.905138e-03 7.739137e-02
 2 -1 0 0 101   0  0.000000e+00  0.000000e+00  1.899294e+03  1.899294e+03 0.0 0.0 9.0
21 -1 0 0 103 101  0.000000e+00  0.000000e+00 -3.300265e+03  3.300265e+03 0.0 0.0 9.0
22  1 1 2   0   0  1.686920e+02  1.342155e+03  1.487156e+03  2.010341e+03 0.0 0.0 9.0
 2  1 1 2 103   0 -1.686920e+02 -1.342155e+03 -2.888127e+03  3.189219e+03 0.0022 0.0 9.0
#pdf 2 21 2.921991e-01 5.077331e-01 5000.0 2.588417e-01 6.624903e-02
</event>
<event>
4 7 1.0 5000.0 7.905138e-03 7.739137e-02
21 -1 0 0 103 101  0.000000e+00  0.000000e+00  2.828676e+03  2.828676e+03 0.0 0.0 9.0
 2 -1 0 0 101   0  0.000000e+00  0.000000e+00 -2.216053e+03  2.216053e+03 0.0 0.0 9.0
22  1 1 2   0   0 -3.608158e+02 -2.155250e+03 -9.247670e+02  2.372865e+03 0.0 0.0 9.0
 2  1 1 2 103   0  3.608158e+02  2.155250e+03  1.537389e+03  2.671864e+03 0.0022 0.0 9.0
#pdf 21 2 4.351809e-01 3.409313e-01 5000.0 6.693123e-03 2.181281e-02
</event>
<event>
4 7 1.0 5000.0 7.905138e-03 7.739137e-02
 2 -1 0 0 101   0  0.000000e+00  0.000000e+00  2.253448e+03  2.253448e+03 0.0 0.0 9.0
21 -1 0 0 103 101  0.000000e+00  0.000000e+00 -2.784815e+03  2.784815e+03 0.0 0.0 9.0
 2  1 1 2 103   0  1.307465e+03  4.910381e+02  1.825608e+03  2.298571e+03 0.0022 0.0 9.0
22  1 1 2   0   0 -1.307465e+03 -4.910381e+02 -2.356976e+03  2.739693e+03 0.0 0.0 9.0
#pdf 2 21 3.466843e-01 4.284331e-01 5000.0 1.952342e-01 1.185699e-01
</event>
<event>
4 7 1.0 5000.0 7.905138e-03 7.739137e-02
 2 -1 0 0 101   0  0.000000e+00  0.000000e+00  2.659232e+03  2.659232e+03 0.0 0.0 9.0
21 -1 0 0 103 101  0.000000e+00  0.000000e+00 -2.290899e+03  2.290899e+03 0.0 0.0 9.0
 2  1 1 2 103   0 -8.435216e+02  3.229111e+02 -2.119224e+03  2.303673e+03 0.0022 0.0 9.0
22  1 1 2   0   0  8.435216e+02 -3.229111e+02  2.487556e+03  2.646457e+03 0.0 0.0 9.0
#pdf 2 21 4.091126e-01 3.524461e-01 5000.0 1.345696e-01 1.890625e-01
</event>
<event>
4 7 1.0 5000.0 7.905138e-03 7.739137e-02
21 -1 0 0 103 101  0.000000e+00  0.000000e+00  2.277070e+03  2.277070e+03 0.0 0.0 9.0
 2 -1 0 0 101   0  0.000000e+00  0.000000e+00 -2.728394e+03  2.728394e+03 0.0 0.0 9.0
22  1 1 2   0   0 -6.254239e+02  4.188355e+02  2.160222e+03  2.287605e+03 0.0 0.0 9.0
 2  1 1 2 103   0  6.254239e+02 -4.188355e+02 -2.611546e+03  2.717858e+03 0.0022 0.0 9.0
#pdf 21 2 3.503184e-01 4.197529e-01 5000.0 1.944327e-02 8.155960e-03
</event>
<event>
4 7 1.0 5000.0 7.905138e-03 7.739137e-02
 2 -1 0 0 101   0  0.000000e+00  0.000000e+00  3.315557e+03  3.315557e+03 0.0 0.0 9.0
21 -1 0 0 103 101  0.000000e+00  0.000000e+00 -1.902946e+03  1.902946e+03 0.0 0.0 9.0
 2  1 1 2 103   0 -9.110739e+02 -1.143930e+03  2.827735e+03  3.183507e+03 0.0022 0.0 9.0
22  1 1 2   0   0  9.110739e+02  1.143930e+03 -1.415124e+03  2.034996e+03 0.0 0.0 9.0
#pdf 2 21 5.100857e-01 2.927610e-01 5000.0 6.500555e-02 2.581400e-01
</event>
<event>
4 7 1.0 5000.0 7.905138e-03 7.739137e-02
21 -1 0 0 103 101  0.000000e+00  0.000000e+00  2.583021e+03  2.583021e+03 0.0 0.0 9.0
 2 -1 0 0 101   0  0.000000e+00  0.000000e+00 -2.289949e+03  2.289949e+03 0.0 0.0 9.0
22  1 1 2   0   0 -3.923878e+02 -2.183053e+03 -8.529188e+02  2.376375e+03 0.0 0.0 9.0
 2  1 1 2 103   0  3.923878e+02  2.183053e+03  1.145991e+03  2.496595e+03 0.0022 0.0 9.0
#pdf 21 2 3.973878e-01 3.522998e-01 5000.0 1.082960e-02 1.897242e-02
</event>
<event>
4 7 1.0 5000.0 7.905138e-03 7.739137e-02
21 -1 0 0 103 101  0.000000e+00  0.000000e+00  3.875640e+03  3.875640e+03 0.0 0.0 9.0
 2 -1 0 0 101   0  0.000000e+00  0.000000e+00 -1.672412e+03  1.672412e+03 0.0 0.0 9.0
22  1 1 2   0   0  1.500787e+03  2.004218e+03  5.994301e+02  2.574600e+03 0.0 0.0 9.0
 2  1 1 2 103   0 -1.500787e+03 -2.004218e+03  1.603798e+03  2.973452e+03 0.0022 0.0 9.0
#pdf 21 2 5.962523e-01 2.572942e-01 5000.0 6.811998e-04 6.094047e-02
</event>
<event>
4 7 1.0 5000.0 7.905138e-03 7.739137e-02
 2 -1 0 0 101   0  0.000000e+00  0.000000e+00  2.650447e+03  2.650447e+03 0.0 0.0 9.0
21 -1 0 0 103 101  0.000000e+00  0.000000e+00 -2.376232e+03  2.376232e+03 0.0 0.0 9.0
 2  1 1 2 103   0 -1.168562e+02  1.560397e+03  2.102068e+03  2.620532e+03 0.0022 0.0 9.0
22  1 1 2   0   0  1.168562e+02 -1.560397e+03 -1.827853e+03  2.406147e+03 0.0 0.0 9.0
#pdf 2 21 4.077610e-01 3.655741e-01 5000.0 1.357374e-01 1.754323e-01
</event>
<event>
4 7 1.0 5000.0 7.905138e-03 7.739137e-02
21 -1 0 0 103 101  0.000000e+00  0.000000e+00  1.851586e+03  1.851586e+03 0.0 0.0 9.0
 2 -1 0 0 101   0  0.000000e+00  0.000000e+00 -3.346272e+03  3.346272e+03 0.0 0.0 9.0
 2  1 1 2 103   0 -7.570280e+02  8.608351e+02 -3.054255e+03  3.262300e+03 0.0022 0.0 9.0
22  1 1 2   0   0  7.570280e+02 -8.608351e+02  1.559569e+03  1.935558e+03 0.0 0.0 9.0
#pdf 21 2 2.848594e-01 5.148111e-01 5000.0 4.335848e-02 2.293880e-03
</event>
<event>
4 7 1.0 5000.0 7.905138e-03 7.739137e-02
21 -1 0 0 103 101  0.000000e+00  0.000000e+00  2.292236e+03  2.292236e+03 0.0 0.0 9.0
 2 -1 0 0 101   0  0.000000e+00  0.000000e+00 -2.615599e+03  2.615599e+03 0.0 0.0 9.0
 2  1 1 2 103   0  4.382384e+01  1.007388e+03  2.074505e+03  2.306582e+03 0.0022 0.0 9.0
22  1 1 2   0   0 -4.382384e+01 -1.007388e+03 -2.397868e+03  2.601253e+03 0.0 0.0 9.0
#pdf 21 2 3.526517e-01 4.023999e-01 5000.0 1.888968e-02 1.016786e-02
</event>
<event>
4 7 1.0 5000.0 7.905138e-03 7.739137e-02
21 -1 0 0 103 101  0.000000e+00  0.000000e+00  1.911751e+03  1.911751e+03 0.0 0.0 9.0
 2 -1 0 0 101   0  0.000000e+00  0.000000e+00 -3.283596e+03  3.283596e+03 0.0 0.0 9.0
22  1 1 2   0   0 -1.291606e+03  1.459643e+03  9.463731e+02  2.166662e+03 0.0 0.0 9.0
 2  1 1 2 103   0  1.291606e+03 -1.459643e+03 -2.318218e+03  3.028685e+03 0.0022 0.0 9.0
#pdf 21 2 2.941156e-01 5.051686e-01 5000.0 3.875109e-02 2.623602e-03
</event>
<event>
4 7 1.0 5000.0 7.905138e-03 7.739137e-02
21 -1 0 0 103 101  0.000000e+00  0.000000e+00  3.689116e+03  3.689116e+03 0.0 0.0 9.0
 2 -1 0 0 101   0  0.000000e+00  0.000000e+00 -1.623197e+03  1.623197e+03 0.0 0.0 9.0
 2  1 1 2 103   0 -4.556449e+02 -5.262474e+02 -1.513465e+03  1.665871e+03 0.0022 0.0 9.0
22  1 1 2   0   0  4.556449e+02  5.262474e+02  3.579384e+03  3.646442e+03 0.0 0.0 9.0
#pdf 21 2 5.675563e-01 2.497226e-01 5000.0 1.064101e-03 6.696454e-02
</event>
<event>
4 7 1.0 5000.0 7.905138e-03 7.739137e-02
 2 -1 0 0 101   0  0.000000e+00  0.000000e+00  2.070966e+03  2.070966e+03 0.0 0.0 9.0
21 -1 0 0 103 101  0.000000e+00  0.000000e+00 -2.650756e+03  2.650756e+03 0.0 0.0 9.0
 2  1 1 2 103   0 -1.419869e+03 -1.512774e+03 -1.386825e+03  2.495555e+03 0.0022 0.0 9.0
22  1 1 2   0   0  1.419869e+03  1.512774e+03  8.070351e+02  2.226167e+03 0.0 0.0 9.0
#pdf 2 21 3.186102e-01 4.078086e-01 5000.0 2.268728e-01 1.356962e-01
</event>
<event>
4 7 1.0 5000.0 7.905138e-03 7.739137e-02
 2 -1 0 0 101   0  0.000000e+00  0.000000e+00  1.623743e+03  1.623743e+03 0.0 0.0 9.0
21 -1 0 0 103 101  0.000000e+00  0.000000e+00 -3.747862e+03  3.747862e+03 0.0 0.0 9.0
22  1 1 2   0   0  1.426026e+03  1.802711e+03 -8.689309e+01  2.300188e+03 0.0 0.0 9.0
 2  1 1 2 103   0 -1.426026e+03 -1.802711e+03 -2.037225e+03  3.071417e+03 0.0022 0.0 9.0
#pdf 2 21 2.498067e-01 5.765942e-01 5000.0 3.138600e-01 3.629649e-02
</event>
<event>
4 7 1.0 5000.0 7.905138e-03 7.739137e-02
21 -1 0 0 103 101  0.000000e+00  0.000000e+00  3.041537e+03  3.041537e+03 0.0 0.0 9.0
 2 -1 0 0 101   0  0.000000e+00  0.000000e+00 -2.051725e+03  2.051725e+03 0.0 0.0 9.0
 2  1 1 2 103   0 -1.436500e+03  2.041773e+03  5.862313e+02  2.564379e+03 0.0022 0.0 9.0
22  1 1 2   0   0  1.436500e+03 -2.041773e+03  4.035807e+02  2.528883e+03 0.0 0.0 9.0
#pdf 21 2 4.679287e-01 3.156499e-01 5000.0 4.353137e-03 2.974145e-02
</event>
<event>
4 7 1.0 5000.0 7.905138e-03 7.739137e-02
 2 -1 0 0 101   0  0.000000e+00  0.000000e+00  4.186179e+03  4.186179e+03 0.0 0.0 9.0
21 -1 0 0 103 101  0.000000e+00  0.000000e+00 -1.494345e+03  1.494345e+03 0.0 0.0 9.0
22  1 1 2   0   0 -2.125606e+03  1.110487e+03  2.152282e+03  3.222375e+03 0.0 0.0 9.0
 2  1 1 2 103   0  2.125606e+03 -1.110487e+03  5.395516e+02  2.458149e+03 0.0022 0.0 9.0
#pdf 2 21 6.440275e-01 2.298993e-01 5000.0 1.798734e-02 3.408673e-01
</event>
<event>
4 7 1.0 5000.0 7.905138e-03 7.739137e-02
 2 -1 0 0 101   0  0.000000e+00  0.000000e+00  3.369377e+03  3.369377e+03 0.0 0.0 9.0
21 -1 0 0 103 101  0.000000e+00  0.000000e+00 -1.871666e+03  1.871666e+03 0.0 0.0 9.0
22  1 1 2   0   0 -1.862705e+03  5.417198e+01  2.505480e+03  3.122505e+03 0.0 0.0 9.0
 2  1 1 2 103   0  1.862705e+03 -5.417198e+01 -1.007769e+03  2.118538e+03 0.0022 0.0 9.0
#pdf 2 21 5.183657e-01 2.879486e-01 5000.0 6.076083e-02 2.641811e-01
</event>
<event>
4 7 1.0 5000.0 7.905138e-03 7.739137e-02
21 -1 0 0 103 101  0.000000e+00  0.000000e+00  2.035502e+03  2.035502e+03 0.0 0.0 9.0
 2 -1 0 0 101   0  0.000000e+00  0.000000e+00 -2.578513e+03  2.578513e+03 0.0 0.0 9.0
 2  1 1 2 103   0 -2.816483e+02 -3.611822e+02  1.988928e+03  2.040984e+03 0.0022 0.0 9.0
22  1 1 2   0   0  2.816483e+02  3.611822e+02 -2.531939e+03  2.573032e+03 0.0 0.0 9.0
#pdf 21 2 3.131542e-01 3.966943e-01 5000.0 3.067451e-02 1.092437e-02
</event>
<event>
4 7 1.0 5000.0 7.905138e-03 7.739137e-02
 2 -1 0 0 101   0  0.000000e+00  0.000000e+00  4.218989e+03  4.218989e+03 0.0 0.0 9.0
21 -1 0 0 103 101  0.000000e+00  0.000000e+00 -1.447957e+03  1.447957e+03 0.0 0.0 9.0
 2  1 1 2 103   0 -1.858187e+03 -1.026016e+03 -6.609746e+01  2.123661e+03 0.0022 0.0 9.0
22  1 1 2   0   0  1.858187e+03  1.026016e+03  2.837129e+03  3.543285e+03 0.0 0.0 9.0
#pdf 2 21 6.490753e-01 2.227627e-01 5000.0 1.697365e-02 3.506294e-01
</event>
<event>
4 7 1.0 5000.0 7.905138e-03 7.739137e-02
 2 -1 0 0 101   0  0.000000e+00  0.000000e+00  1.550445e+03  1.550445e+03 0.0 0.0 9.0
21 -1 0 0 103 101  0.000000e+00  0.000000e+00 -3.962085e+03  3.962085e+03 0.0 0.0 9.0
22  1 1 2   0   0 -4.119084e+02 -1.752614e+03  6.885076e+02  1.927529e+03 0.0 0.0 9.0
 2  1 1 2 103   0  4.119084e+02  1.752614e+03 -3.100147e+03  3.585002e+03 0.0022 0.0 9.0
#pdf 2 21 2.385301e-01 6.095516e-01 5000.0 3.290618e-01 2.617811e-02
</event>
<event>
4 7 1.0 5000.0 7.905138e-03 7.739137e-02
 2 -1 0 0 101   0  0.000000e+00  0.000000e+00  1.020204e+03  1.020204e+03 0.0 0.0 9.0
21 -1 0 0 103 101  0.000000e+00  0.000000e+00 -4.343188e+03  4.343188e+03 0.0 0.0 9.0
 2  1 1 2 103   0  1.601858e+03 -9.338832e+02 -3.920782e+02  1.895208e+03 0.0022 0.0 9.0
22  1 1 2   0   0 -1.601858e+03  9.338832e+02 -2.930906e+03  3.468183e+03 0.0 0.0 9.0
#pdf 2 21 1.569544e-01 6.681827e-01 5000.0 4.406803e-01 1.350754e-02
</event>
<event>
4 7 1.0 5000.0 7.905138e-03 7.739137e-02
 2 -1 0 0 101   0  0.000000e+00  0.000000e+00  2.643123e+03  2.643123e+03 0.0 0.0 9.0
21 -1 0 0 103 101  0.000000e+00  0.000000e+00 -2.377540e+03  2.377540e+03 0.0 0.0 9.0
22  1 1 2   0   0 -7.868478e+02  2.300444e+03  7.443512e+02  2.542682e+03 0.0 0.0 9.0
 2  1 1 2 103   0  7.868478e+02 -2.300444e+03 -4.787685e+02  2.477981e+03 0.0022 0.0 9.0
#pdf 2 21 4.066343e-01 3.657754e-01 5000.0 1.367163e-01 1.752278e-01
</event>
<event>
4 7 1.0 5000.0 7.905138e-03 7.739137e-02
 2 -1 0 0 101   0  0.000000e+00  0.000000e+00  3.578061e+03  3.578061e+03 0.0 0.0 9.0
21 -1 0 0 103 101  0.000000e+00  0.000000e+00 -1.780708e+03  1.780708e+03 0.0 0.0 9.0
22  1 1 2   0   0 -1.877403e+02  9.330145e+02 -1.582962e+03  1.847033e+03 0.0 0.0 9.0
 2  1 1 2 103   0  1.877403e+02 -9.330145e+02  3.380315e+03  3.511736e+03 0.0022 0.0 9.0
#pdf 2 21 5.504709e-01 2.739550e-01 5000.0 4.615009e-02 2.820499e-01
</event>
<event>
4 7 1.0 5000.0 7.905138e-03 7.739137e-02
21 -1 0 0 103 101  0.000000e+00  0.000000e+00  1.596271e+03  1.596271e+03 0.0 0.0 9.0
 2 -1 0 0 101   0  0.000000e+00  0.000000e+00 -3.916451e+03  3.916451e+03 0.0 0.0 9.0
22  1 1 2   0   0  1.152068e+03  4.208918e+02  1.241839e+03  1.745444e+03 0.0 0.0 9.0
 2  1 1 2 103   0 -1.152068e+03 -4.208918e+02 -3.562019e+03  3.767279e+03 0.0022 0.0 9.0
#pdf 21 2 2.455802e-01 6.025309e-01 5000.0 7.043079e-02 6.164763e-04
</event>
<event>
4 7 1.0 5000.0 7.905138e-03 7.739137e-02
21 -1 0 0 103 101  0.000000e+00  0.000000e+00  1.870422e+03  1.870422e+03 0.0 0.0 9.0
 2 -1 0 0 101   0  0.000000e+00  0.000000e+00 -3.247635e+03  3.247635e+03 0.0 0.0 9.0
22  1 1 2   0   0 -1.450788e+03  1.068458e+03 -2.434694e+03  3.028881e+03 0.0 0.0 9.0
 2  1 1 2 103   0  1.450788e+03 -1.068458e+03  1.057481e+03  2.089175e+03 0.0022 0.0 9.0
#pdf 21 2 2.877572e-01 4.996362e-01 5000.0 4.186016e-02 2.832605e-03
</event>
<event>
4 7 1.0 5000.0 7.905138e-03 7.739137e-02
 2 -1 0 0 101   0  0.000000e+00  0.000000e+00  1.787779e+03  1.787779e+03 0.0 0.0 9.0
21 -1 0 0 103 101  0.000000e+00  0.000000e+00 -3.463999e+03  3.463999e+03 0.0 0.0 9.0
 2  1 1 2 103   0  3.406146e+02 -1.629984e+03 -2.789498e+03  3.248717e+03 0.0022 0.0 9.0
22  1 1 2   0   0 -3.406146e+02  1.629984e+03  1.113279e+03  2.003061e+03 0.0 0.0 9.0
#pdf 2 21 2.750430e-01 5.329229e-01 5000.0 2.806431e-01 5.378775e-02
</event>
<event>
4 7 1.0 5000.0 7.905138e-03 7.739137e-02
21 -1 0 0 103 101  0.000000e+00  0.000000e+00  2.594234e+03  2.594234e+03 0.0 0.0 9.0
 2 -1 0 0 101   0  0.000000e+00  0.000000e+00 -2.542412e+03  2.542412e+03 0.0 0.0 9.0
 2  1 1 2 103   0 -5.179486e+02 -8.949209e+02 -2.325051e+03  2.544605e+03 0.0022 0.0 9.0
22  1 1 2   0   0  5.179486e+02  8.949209e+02  2.376873e+03  2.592041e+03 0.0 0.0 9.0
#pdf 21 2 3.991130e-01 3.911404e-01 5000.0 1.059734e-02 1.171413e-02
</event>
<event>
4 7 1.0 5000.0 7.905138e-03 7.739137e-02
21 -1 0 0 103 101  0.000000e+00  0.000000e+00  2.069894e+03  2.069894e+03 0.0 0.0 9.0
 2 -1 0 0 101   0  0.000000e+00  0.000000e+00 -2.992050e+03  2.992050e+03 0.0 0.0 9.0
22  1 1 2   0   0  1.560709e+03  8.438535e+02  1.313708e+03  2.207652e+03 0.0 0.0 9.0
 2  1 1 2 103   0 -1.560709e+03 -8.438535e+02 -2.235863e+03  2.854292e+03 0.0022 0.0 9.0
#pdf 21 2 3.184453e-01 4.603154e-01 5000.0 2.873541e-02 4.815237e-03
</event>
<event>
4 7 1.0 5000.0 7.905138e-03 7.739137e-02
 2 -1 0 0 101   0  0.000000e+00  0.000000e+00  2.986669e+03  2.986669e+03 0.0 0.0 9.0
21 -1 0 0 103 101  0.000000e+00  0.000000e+00 -2.103840e+03  2.103840e+03 0.0 0.0 9.0
22  1 1 2   0   0  9.581831e+02  2.310667e+03  2.771336e+02  2.516764e+03 0.0 0.0 9.0
 2  1 1 2 103   0 -9.581831e+02 -2.310667e+03  6.056951e+02  2.573745e+03 0.0022 0.0 9.0
#pdf 2 21 4.594875e-01 3.236677e-01 5000.0 9.558592e-02 2.209863e-01
</event>
<event>
4 7 1.0 5000.0 7.905138e-03 7.739137e-02
 2 -1 0 0 101   0  0.000000e+00  0.000000e+00  3.265797e+03  3.265797e+03 0.0 0.0 9.0
21 -1 0 0 103 101  0.000000e+00  0.000000e+00 -1.862130e+03  1.862130e+03 0.0 0.0 9.0
 2  1 1 2 103   0  7.579056e+02  8.211404e+02 -1.583790e+03  1.938320e+03 0.0022 0.0 9.0
22  1 1 2   0   0 -7.579056e+02 -8.211404e+02  2.987457e+03  3.189607e+03 0.0 0.0 9.0
#pdf 2 21 5.024302e-01 2.864815e-01 5000.0 6.911323e-02 2.660349e-01
</event>
<event>
4 7 1.0 5000.0 7.905138e-03 7.739137e-02
 2 -1 0 0 101   0  0.000000e+00  0.000000e+00  3.407831e+03  3.407831e+03 0.0 0.0 9.0
21 -1 0 0 103 101  0.000000e+00  0.000000e+00 -1.834092e+03  1.834092e+03 0.0 0.0 9.0
22  1 1 2   0   0  2.164618e+03 -1.164157e+02 -5.188152e+02  2.228967e+03 0.0 0.0 9.0
 2  1 1 2 103   0 -2.164618e+03  1.164157e+02  2.092554e+03  3.012957e+03 0.0022 0.0 9.0
#pdf 2 21 5.242817e-01 2.821680e-01 5000.0 5.785559e-02 2.715092e-01
</event>
<event>
4 7 1.0 5000.0 7.905138e-03 7.739137e-02
 2 -1 0 0 101   0  0.000000e+00  0.000000e+00  3.532725e+03  3.532725e+03 0.0 0.0 9.0
21 -1 0 0 103 101  0.000000e+00  0.000000e+00 -1.765741e+03  1.765741e+03 0.0 0.0 9.0
22  1 1 2   0   0  2.221302e+03 -1.011623e+03  3.218960e+02  2.461946e+03 0.0 0.0 9.0
 2  1 1 2 103   0 -2.221302e+03  1.011623e+03  1.445089e+03  2.836520e+03 0.0022 0.0 9.0
#pdf 2 21 5.434962e-01 2.716524e-01 5000.0 4.908898e-02 2.850369e-01
</event>
<event>
4 7 1.0 5000.0 7.905138e-03 7.739137e-02
 2 -1 0 0 101   0  0.000000e+00  0.000000e+00  3.599865e+03  3.599865e+03 0.0 0.0 9.0
21 -1 0 0 103 101  0.000000e+00  0.000000e+00 -1.722876e+03  1.722876e+03 0.0 0.0 9.0
 2  1 1 2 103   0  6.475310e+02  8.633871e+02  3.336985e+03  3.507164e+03 0.0022 0.0 9.0
22  1 1 2   0   0 -6.475310e+02 -8.633871e+02 -1.459996e+03  1.815578e+03 0.0 0.0 9.0
#pdf 2 21 5.538254e-01 2.650579e-01 5000.0 4.479135e-02 2.936514e-01
</event>
<event>
4 7 1.0 5000.0 7.905138e-03 7.739137e-02
21 -1 0 0 103 101  0.000000e+00  0.000000e+00  2.339857e+03  2.339857e+03 0.0 0.0 9.0
 2 -1 0 0 101   0  0.000000e+00  0.000000e+00 -2.448158e+03  2.448158e+03 0.0 0.0 9.0
22  1 1 2   0   0 -1.134414e+03  5.058512e+02  1.992237e+03  2.347720e+03 0.0 0.0 9.0
 2  1 1 2 103   0  1.134414e+03 -5.058512e+02 -2.100538e+03  2.440295e+03 0.0022 0.0 9.0
#pdf 21 2 3.599780e-01 3.766397e-01 5000.0 1.725312e-02 1.404877e-02
</event>
<event>
4 7 1.0 5000.0 7.905138e-03 7.739137e-02
 2 -1 0 0 101   0  0.000000e+00  0.000000e+00  2.248195e+03  2.248195e+03 0.0 0.0 9.0
21 -1 0 0 103 101  0.000000e+00  0.000000e+00 -2.763812e+03  2.763812e+03 0.0 0.0 9.0
22  1 1 2   0   0  1.052114e+03  6.099430e+02  1.929715e+03  2.280959e+03 0.0 0.0 9.0
 2  1 1 2 103   0 -1.052114e+03 -6.099430e+02 -2.445332e+03  2.731048e+03 0.0022 0.0 9.0
#pdf 2 21 3.458762e-01 4.252019e-01 5000.0 1.961089e-01 1.211517e-01
</event>
<event>
4 7 1.0 5000.0 7.905138e-03 7.739137e-02
21 -1 0 0 103 101  0.000000e+00  0.000000e+00  2.125554e+03  2.125554e+03 0.0 0.0 9.0
 2 -1 0 0 101   0  0.000000e+00  0.000000e+00 -2.813775e+03  2.813775e+03 0.0 0.0 9.0
 2  1 1 2 103   0  1.624184e+02 -1.027000e+03  1.891226e+03  2.158204e+03 0.0022 0.0 9.0
22  1 1 2   0   0 -1.624184e+02  1.027000e+03 -2.579447e+03  2.781125e+03 0.0 0.0 9.0
#pdf 21 2 3.270083e-01 4.328885e-01 5000.0 2.587633e-02 6.891930e-03
</event>
<event>
4 7 1.0 5000.0 7.905138e-03 7.739137e-02
 2 -1 0 0 101   0  0.000000e+00  0.000000e+00  2.557430e+03  2.557430e+03 0.0 0.0 9.0
21 -1 0 0 103 101  0.000000e+00  0.000000e+00 -2.642247e+03  2.642247e+03 0.0 0.0 9.0
22  1 1 2   0   0 -2.242547e+03  1.122926e+03 -7.261506e+02  2.610992e+03 0.0 0.0 9.0
 2  1 1 2 103   0  2.242547e+03 -1.122926e+03  6.413334e+02  2.588685e+03 0.0022 0.0 9.0
#pdf 2 21 3.934507e-01 4.064995e-01 5000.0 1.485127e-01 1.368337e-01
</event>
<event>
4 7 1.0 5000.0 7.905138e-03 7.739137e-02
 2 -1 0 0 101   0  0.000000e+00  0.000000e+00  2.727419e+03  2.727419e+03 0.0 0.0 9.0
21 -1 0 0 103 101  0.000000e+00  0.000000e+00 -2.759900e+03  2.759900e+03 0.0 0.0 9.0
 2  1 1 2 103   0  1.159458e+03 -2.063082e+03 -1.404340e+03  2.751876e+03 0.0022 0.0 9.0
22  1 1 2   0   0 -1.159458e+03  2.063082e+03  1.371859e+03  2.735443e+03 0.0 0.0 9.0
#pdf 2 21 4.196029e-01 4.246000e-01 5000.0 1.257172e-01 1.216370e-01
</event>
<event>
4 7 1.0 5000.0 7.905138e-03 7.739137e-02
 2 -1 0 0 101   0  0.000000e+00  0.000000e+00  2.162283e+03  2.162283e+03 0.0 0.0 9.0
21 -1 0 0 103 101  0.000000e+00  0.000000e+00 -3.025264e+03  3.025264e+03 0.0 0.0 9.0
 2  1 1 2 103   0 -5.598195e+02 -7.939346e+02 -2.830880e+03  2.992927e+03 0.0022 0.0 9.0
22  1 1 2   0   0  5.598195e+02  7.939346e+02  1.967900e+03  2.194620e+03 0.0 0.0 9.0
#pdf 2 21 3.326590e-01 4.654253e-01 5000.0 2.107145e-01 9.157061e-02
</event>
<event>
4 7 1.0 5000.0 7.905138e-03 7.739137e-02
 2 -1 0 0 101   0  0.000000e+00  0.000000e+00  1.936750e+03  1.936750e+03 0.0 0.0 9.0
21 -1 0 0 103 101  0.000000e+00  0.000000e+00 -3.222022e+03  3.222022e+03 0.0 0.0 9.0
22  1 1 2   0   0  1.640539e+03  3.525770e+02 -2.553451e+03  3.055452e+03 0.0 0.0 9.0
 2  1 1 2 103   0 -1.640539e+03 -3.525770e+02  1.268178e+03  2.103320e+03 0.0022 0.0 9.0
#pdf 2 21 2.979615e-01 4.956958e-01 5000.0 2.516980e-01 7.287499e-02
</event>
<event>
4 7 1.0 5000.0 7.905138e-03 7.739137e-02
 2 -1 0 0 101   0  0.000000e+00  0.000000e+00  2.054791e+03  2.054791e+03 0.0 0.0 9.0
21 -1 0 0 103 101  0.000000e+00  0.000000e+00 -3.087689e+03  3.087689e+03 0.0 0.0 9.0
 2  1 1 2 103   0 -1.407690e+03  2.064010e+03 -1.891145e+02  2.505493e+03 0.0022 0.0 9.0
22  1 1 2   0   0  1.407690e+03 -2.064010e+03 -8.437836e+02  2.636987e+03 0.0 0.0 9.0
#pdf 2 21 3.161217e-01 4.750291e-01 5000.0 2.297947e-01 8.531701e-02
</event>
<event>
4 7 1.0 5000.0 7.905138e-03 7.739137e-02
 2 -1 0 0 101   0  0.000000e+00  0.000000e+00  1.782905e+03  1.782905e+03 0.0 0.0 9.0
21 -1 0 0 103 101  0.000000e+00  0.000000e+00 -3.506695e+03  3.506695e+03 0.0 0.0 9.0
22  1 1 2   0   0  7.931106e+02 -1.361907e+03 -2.915192e+03  3.313934e+03 0.0 0.0 9.0
 2  1 1 2 103   0 -7.931106e+02  1.361907e+03  1.191402e+03  1.975666e+03 0.0022 0.0 9.0
#pdf 2 21 2.742931e-01 5.394915e-01 5000.0 2.816125e-01 5.082612e-02
</event>
<event>
4 7 1.0 5000.0 7.905138e-03 7.739137e-02
 2 -1 0 0 101   0  0.000000e+00  0.000000e+00  2.801608e+03  2.801608e+03 0.0 0.0 9.0
21 -1 0 0 103 101  0.000000e+00  0.000000e+00 -2.269568e+03  2.269568e+03 0.0 0.0 9.0
 2  1 1 2 103   0  1.831782e+03 -1.726775e+03  1.194013e+02  2.520205e+03 0.0022 0.0 9.0
22  1 1 2   0   0 -1.831782e+03  1.726775e+03  4.126387e+02  2.550970e+03 0.0 0.0 9.0
#pdf 2 21 4.310166e-01 3.491643e-01 5000.0 1.165349e-01 1.925636e-01
</event>
<event>
4 7 1.0 5000.0 7.905138e-03 7.739137e-02
21 -1 0 0 103 101  0.000000e+00  0.000000e+00  4.028000e+03  4.028000e+03 0.0 0.0 9.0
 2 -1 0 0 101   0  0.000000e+00  0.000000e+00 -1.566132e+03  1.566132e+03 0.0 0.0 9.0
22  1 1 2   0   0  1.671671e+03 -1.754602e+03  4.962166e+02  2.473731e+03 0.0 0.0 9.0
 2  1 1 2 103   0 -1.671671e+03  1.754602e+03  1.965652e+03  3.120401e+03 0.0022 0.0 9.0
#pdf 21 2 6.196924e-01 2.409433e-01 5000.0 4.657822e-04 7.472677e-02
</event>
<event>
4 7 1.0 5000.0 7.905138e-03 7.739137e-02
 2 -1 0 0 101   0  0.000000e+00  0.000000e+00  1.458676e+03  1.458676e+03 0.0 0.0 9.0
21 -1 0 0 103 101  0.000000e+00  0.000000e+00 -4.112044e+03  4.112044e+03 0.0 0.0 9.0
 2  1 1 2 103   0 -1.298212e+03 -4.622295e+02 -3.629286e+03  3.882104e+03 0.0022 0.0 9.0
22  1 1 2   0   0  1.298212e+03  4.622295e+02  9.759173e+02  1.688616e+03 0.0 0.0 9.0
#pdf 2 21 2.244116e-01 6.326222e-01 5000.0 3.483742e-01 2.044771e-02
</event>
<event>
4 7 1.0 5000.0 7.905138e-03 7.739137e-02
 2 -1 0 0 101   0  0.000000e+00  0.000000e+00  2.349697e+03  2.349697e+03 0.0 0.0 9.0
21 -1 0 0 103 101  0.000000e+00  0.000000e+00 -2.652949e+03  2.652949e+03 0.0 0.0 9.0
22  1 1 2   0   0 -7.616996e+02  8.647274e+02  2.067333e+03  2.366814e+03 0.0 0.0 9.0
 2  1 1 2 103   0  7.616996e+02 -8.647274e+02 -2.370586e+03  2.635833e+03 0.0022 0.0 9.0
#pdf 2 21 3.614919e-01 4.081461e-01 5000.0 1.796085e-01 1.354040e-01
</event>
<event>
4 7 1.0 5000.0 7.905138e-03 7.739137e-02
 2 -1 0 0 101   0  0.000000e+00  0.000000e+00  3.206713e+03  3.206713e+03 0.0 0.0 9.0
21 -1 0 0 103 101  0.000000e+00  0.000000e+00 -2.080498e+03  2.080498e+03 0.0 0.0 9.0
 2  1 1 2 103   0  1.229078e+02  2.035099e+03 -1.059961e+03  2.297880e+03 0.0022 0.0 9.0
22  1 1 2   0   0 -1.229078e+02 -2.035099e+03  2.186176e+03  2.989331e+03 0.0 0.0 9.0
#pdf 2 21 4.933404e-01 3.200766e-01 5000.0 7.422425e-02 2.251588e-01
</event>
<event>
4 7 1.0 5000.0 7.905138e-03 7.739137e-02
21 -1 0 0 103 101  0.000000e+00  0.000000e+00  3.323654e+03  3.323654e+03 0.0 0.0 9.0
 2 -1 0 0 101   0  0.000000e+00  0.000000e+00 -1.853786e+03  1.853786e+03 0.0 0.0 9.0
 2  1 1 2 103   0 -2.256401e+02  2.387067e+03  6.523856e+01  2.398595e+03 0.0022 0.0 9.0
22  1 1 2   0   0  2.256401e+02 -2.387067e+03  1.404629e+03  2.778846e+03 0.0 0.0 9.0
#pdf 21 2 5.113314e-01 2.851979e-01 5000.0 2.408360e-03 4.318019e-02
</event>
<event>
4 7 1.0 5000.0 7.905138e-03 7.739137e-02
21 -1 0 0 103 101  0.000000e+00  0.000000e+00  3.422984e+03  3.422984e+03 0.0 0.0 9.0
 2 -1 0 0 101   0  0.000000e+00  0.000000e+00 -1.786850e+03  1.786850e+03 0.0 0.0 9.0
22  1 1 2   0   0 -2.618997e+02 -1.308170e+03  3.011452e+03  3.293744e+03 0.0 0.0 9.0
 2  1 1 2 103   0  2.618997e+02  1.308170e+03 -1.375318e+03  1.916090e+03 0.0022 0.0 9.0
#pdf 21 2 5.266129e-01 2.748999e-01 5000.0 1.941420e-03 4.900394e-02
</event>
<event>
4 7 1.0 5000.0 7.905138e-03 7.739137e-02
 2 -1 0 0 101   0  0.000000e+00  0.000000e+00  2.157532e+03  2.157532e+03 0.0 0.0 9.0
21 -1 0 0 103 101  0.000000e+00  0.000000e+00 -2.980628e+03  2.980628e+03 0.0 0.0 9.0
 2  1 1 2 103   0  1.830836e+03 -1.022938e+03  1.032740e+03  2.337716e+03 0.0022 0.0 9.0
22  1 1 2   0   0 -1.830836e+03  1.022938e+03 -1.855835e+03  2.800444e+03 0.0 0.0 9.0
#pdf 2 21 3.319280e-01 4.585581e-01 5000.0 2.115394e-01 9.622713e-02
</event>
<event>
4 7 1.0 5000.0 7.905138e-03 7.739137e-02
 2 -1 0 0 101   0  0.000000e+00  0.000000e+00  1.848533e+03  1.848533e+03 0.0 0.0 9.0
21 -1 0 0 103 101  0.000000e+00  0.000000e+00 -3.116898e+03  3.116898e+03 0.0 0.0 9.0
22  1 1 2   0   0 -6.898764e+02 -2.291199e+03 -4.374790e+02  2.432470e+03 0.0 0.0 9.0
 2  1 1 2 103   0  6.898764e+02  2.291199e+03 -8.308867e+02  2.532961e+03 0.0022 0.0 9.0
#pdf 2 21 2.843896e-01 4.795228e-01 5000.0 2.686858e-01 8.249316e-02
</event>
<event>
4 7 1.0 5000.0 7.905138e-03 7.739137e-02
 2 -1 0 0 101   0  0.000000e+00  0.000000e+00  3.316366e+03  3.316366e+03 0.0 0.0 9.0
21 -1 0 0 103 101  0.000000e+00  0.000000e+00 -1.917893e+03  1.917893e+03 0.0 0.0 9.0
 2  1 1 2 103   0  1.114633e+03  2.066258e+03  1.655186e+03  2.872537e+03 0.0022 0.0 9.0
22  1 1 2   0   0 -1.114633e+03 -2.066258e+03 -2.567133e+02  2.361722e+03 0.0 0.0 9.0
#pdf 2 21 5.102101e-01 2.950604e-01 5000.0 6.494027e-02 2.552791e-01
</event>
<event>
4 7 1.0 5000.0 7.905138e-03 7.739137e-02
 2 -1 0 0 101   0  0.000000e+00  0.000000e+00  4.765719e+03  4.765719e+03 0.0 0.0 9.0
21 -1 0 0 103 101  0.000000e+00  0.000000e+00 -1.280035e+03  1.280035e+03 0.0 0.0 9.0
22  1 1 2   0   0 -1.585814e+03  5.680029e+02 -4.679306e+02  1.748254e+03 0.0 0.0 9.0
 2  1 1 2 103   0  1.585814e+03 -5.680029e+02  3.953615e+03  4.297500e+03 0.0022 0.0 9.0
#pdf 2 21 7.331876e-01 1.969284e-01 5000.0 5.540671e-03 3.862803e-01
</event>
<event>
4 7 1.0 5000.0 7.905138e-03 7.739137e-02
 2 -1 0 0 101   0  0.000000e+00  0.000000e+00  1.689391e+03  1.689391e+03 0.0 0.0 9.0
21 -1 0 0 103 101  0.000000e+00  0.000000e+00 -3.611745e+03  3.611745e+03 0.0 0.0 9.0
 2  1 1 2 103   0 -1.151770e+03  1.826130e+03  3.266134e+02  2.183576e+03 0.0022 0.0 9.0
22  1 1 2   0   0  1.151770e+03 -1.826130e+03 -2.248967e+03  3.117560e+03 0.0 0.0 9.0
#pdf 2 21 2.599063e-01 5.556530e-01 5000.0 3.004270e-01 4.407005e-02
</event>
<event>
4 7 1.0 5000.0 7.905138e-03 7.739137e-02
21 -1 0 0 103 101  0.000000e+00  0.000000e+00  2.264832e+03  2.264832e+03 0.0 0.0 9.0
 2 -1 0 0 101   0  0.000000e+00  0.000000e+00 -2.660254e+03  2.660254e+03 0.0 0.0 9.0
 2  1 1 2 103   0  2.680755e+02  7.872900e+02 -2.514593e+03  2.648559e+03 0.0022 0.0 9.0
22  1 1 2   0   0 -2.680755e+02 -7.872900e+02  2.119170e+03  2.276526e+03 0.0 0.0 9.0
#pdf 21 2 3.484356e-01 4.092699e-01 5000.0 1.989902e-02 9.320068e-03
</event>
<event>
4 7 1.0 5000.0 7.905138e-03 7.739137e-02
 2 -1 0 0 101   0  0.000000e+00  0.000000e+00  1.886938e+03  1.886938e+03 0.0 0.0 9.0
21 -1 0 0 103 101  0.000000e+00  0.000000e+00 -3.274940e+03  3.274940e+03 0.0 0.0 9.0
22  1 1 2   0   0  1.552601e+03 -3.295381e+02  1.292387e+03  2.046810e+03 0.0 0.0 9.0
 2  1 1 2 103   0 -1.552601e+03  3.295381e+02 -2.680388e+03  3.115068e+03 0.0022 0.0 9.0
#pdf 2 21 2.902982e-01 5.038369e-01 5000.0 2.612233e-01 6.834517e-02
</event>
<event>
4 7 1.0 5000.0 7.905138e-03 7.739137e-02
 2 -1 0 0 101   0  0.000000e+00  0.000000e+00  1.621260e+03  1.621260e+03 0.0 0.0 9.0
21 -1 0 0 103 101  0.000000e+00  0.000000e+00 -3.842628e+03  3.842628e+03 0.0 0.0 9.0
22  1 1 2   0   0 -2.190949e+02 -2.271006e+03 -2.218510e+03  3.182335e+03 0.0 0.0 9.0
 2  1 1 2 103   0  2.190949e+02  2.271006e+03 -2.857887e+00  2.281552e+03 0.0022 0.0 9.0
#pdf 2 21 2.494246e-01 5.911735e-01 5000.0 3.143744e-01 3.151804e-02
</event>
<event>
4 7 1.0 5000.0 7.905138e-03 7.739137e-02
 2 -1 0 0 101   0  0.000000e+00  0.000000e+00  1.683249e+03  1.683249e+03 0.0 0.0 9.0
21 -1 0 0 103 101  0.000000e+00  0.000000e+00 -3.426298e+03  3.426298e+03 0.0 0.0 9.0
22  1 1 2   0   0 -1.910941e+03  8.646031e+02 -2.115814e+03  2.979245e+03 0.0 0.0 9.0
 2  1 1 2 103   0  1.910941e+03 -8.646031e+02  3.727650e+02  2.130302e+03 0.0022 0.0 9.0
#pdf 2 21 2.589614e-01 5.271227e-01 5000.0 3.016736e-01 5.649660e-02
</event>
<event>
4 7 1.0 5000.0 7.905138e-03 7.739137e-02
21 -1 0 0 103 101  0.000000e+00  0.000000e+00  3.994703e+03  3.994703e+03 0.0 0.0 9.0
 2 -1 0 0 101   0  0.000000e+00  0.000000e+00 -1.572968e+03  1.572968e+03 0.0 0.0 9.0
 2  1 1 2 103   0 -7.502101e+02 -1.775005e+03 -5.695205e+02  2.009431e+03 0.0022 0.0 9.0
22  1 1 2   0   0  7.502101e+02  1.775005e+03  2.991255e+03  3.558239e+03 0.0 0.0 9.0
#pdf 21 2 6.145696e-01 2.419950e-01 5000.0 5.067943e-04 7.374135e-02
</event>
<event>
4 7 1.0 5000.0 7.905138e-03 7.739137e-02
 2 -1 0 0 101   0  0.000000e+00  0.000000e+00  3.848641e+03  3.848641e+03 0.0 0.0 9.0
21 -1 0 0 103 101  0.000000e+00  0.000000e+00 -1.558417e+03  1.558417e+03 0.0 0.0 9.0
22  1 1 2   0   0 -1.275551e+03 -1.374646e+03  2.883945e+03  3.440032e+03 0.0 0.0 9.0
 2  1 1 2 103   0  1.275551e+03  1.374646e+03 -5.937214e+02  1.967025e+03 0.0022 0.0 9.0
#pdf 2 21 5.920986e-01 2.397564e-01 5000.0 3.123139e-02 3.273972e-01
</event>
<event>
4 7 1.0 5000.0 7.905138e-03 7.739137e-02
21 -1 0 0 103 101  0.000000e+00  0.000000e+00  2.972140e+03  2.972140e+03 0.0 0.0 9.0
 2 -1 0 0 101   0  0.000000e+00  0.000000e+00 -2.101180e+03  2.101180e+03 0.0 0.0 9.0
 2  1 1 2 103   0 -1.888283e+03 -3.972956e+02 -1.176388e+03  2.259943e+03 0.0022 0.0 9.0
22  1 1 2   0   0  1.888283e+03  3.972956e+02  2.047348e+03  2.813377e+03 0.0 0.0 9.0
#pdf 21 2 4.572523e-01 3.232585e-01 5000.0 5.015858e-03 2.709052e-02
</event>
<event>
4 7 1.0 5000.0 7.905138e-03 7.739137e-02
 2 -1 0 0 101   0  0.000000e+00  0.000000e+00  2.517964e+03  2.517964e+03 0.0 0.0 9.0
21 -1 0 0 103 101  0.000000e+00  0.000000e+00 -2.491143e+03  2.491143e+03 0.0 0.0 9.0
22  1 1 2   0   0 -1.257799e+03  1.029043e+03 -1.892298e+03  2.494350e+03 0.0 0.0 9.0
 2  1 1 2 103   0  1.257799e+03 -1.029043e+03  1.919119e+03  2.514758e+03 0.0022 0.0 9.0
#pdf 2 21 3.873791e-01 3.832528e-01 5000.0 1.541424e-01 1.580442e-01
</event>
<event>
4 7 1.0 5000.0 7.905138e-03 7.739137e-02
 2 -1 0 0 101   0  0.000000e+00  0.000000e+00  3.171296e+03  3.171296e+03 0.0 0.0 9.0
21 -1 0 0 103 101  0.000000e+00  0.000000e+00 -2.003982e+03  2.003982e+03 0.0 0.0 9.0
22  1 1 2   0   0 -1.037350e+03 -1.045153e+03  2.683943e+03  3.061370e+03 0.0 0.0 9.0
 2  1 1 2 103   0  1.037350e+03  1.045153e+03 -1.516629e+03  2.113907e+03 0.0022 0.0 9.0
#pdf 2 21 4.878916e-01 3.083049e-01 5000.0 7.741277e-02 2.390982e-01
</event>
<event>
4 7 1.0 5000.0 7.905138e-03 7.739137e-02
21 -1 0 0 103 101  0.000000e+00  0.000000e+00  1.448331e+03  1.448331e+03 0.0 0.0 9.0
 2 -1 0 0 101   0  0.000000e+00  0.000000e+00 -4.053498e+03  4.053498e+03 0.0 0.0 9.0
 2  1 1 2 103   0 -5.853643e+02 -1.392622e+03 -3.453385e+03  3.769339e+03 0.0022 0.0 9.0
22  1 1 2   0   0  5.853643e+02  1.392622e+03  8.482177e+02  1.732490e+03 0.0 0.0 9.0
#pdf 21 2 2.228201e-01 6.236151e-01 5000.0 9.382549e-02 4.363309e-04
</event>
<event>
4 7 1.0 5000.0 7.905138e-03 7.739137e-02
 2 -1 0 0 101   0  0.000000e+00  0.000000e+00  3.387656e+03  3.387656e+03 0.0 0.0 9.0
21 -1 0 0 103 101  0.000000e+00  0.000000e+00 -1.463284e+03  1.463284e+03 0.0 0.0 9.0
 2  1 1 2 103   0  5.554777e+01 -2.136565e+03  2.826420e+02  2.155894e+03 0.0022 0.0 9.0
22  1 1 2   0   0 -5.554777e+01  2.136565e+03  1.641730e+03  2.695046e+03 0.0 0.0 9.0
#pdf 2 21 5.211778e-01 2.251206e-01 5000.0 5.936662e-02 3.474049e-01
</event>
<event>
4 7 1.0 5000.0 7.905138e-03 7.739137e-02
 2 -1 0 0 101   0  0.000000e+00  0.000000e+00  2.153575e+03  2.153575e+03 0.0 0.0 9.0
21 -1 0 0 103 101  0.000000e+00  0.000000e+00 -2.906889e+03  2.906889e+03 0.0 0.0 9.0
22  1 1 2   0   0 -5.762395e+02  1.516442e+03  1.549683e+03  2.243472e+03 0.0 0.0 9.0
 2  1 1 2 103   0  5.762395e+02 -1.516442e+03 -2.302998e+03  2.816992e+03 0.0022 0.0 9.0
#pdf 2 21 3.313193e-01 4.472137e-01 5000.0 2.122278e-01 1.042680e-01
</event>
<event>
4 7 1.0 5000.0 7.905138e-03 7.739137e-02
 2 -1 0 0 101   0  0.000000e+00  0.000000e+00  3.553598e+03  3.553598e+03 0.0 0.0 9.0
21 -1 0 0 103 101  0.000000e+00  0.000000e+00 -1.777569e+03  1.777569e+03 0.0 0.0 9.0
 2  1 1 2 103   0 -1.385833e+03  1.970594e+03  1.283877e+02  2.412521e+03 0.0022 0.0 9.0
22  1 1 2   0   0  1.385833e+03 -1.970594e+03  1.647641e+03  2.918646e+03 0.0 0.0 9.0
#pdf 2 21 5.467073e-01 2.734722e-01 5000.0 4.772417e-02 2.826752e-01
</event>
<event>
4 7 1.0 5000.0 7.905138e-03 7.739137e-02
21 -1 0 0 103 101  0.000000e+00  0.000000e+00  1.908855e+03  1.908855e+03 0.0 0.0 9.0
 2 -1 0 0 101   0  0.000000e+00  0.000000e+00 -3.256646e+03  3.256646e+03 0.0 0.0 9.0
 2  1 1 2 103   0  1.938402e+03 -1.458425e+03 -7.697427e+01  2.427001e+03 0.0022 0.0 9.0
22  1 1 2   0   0 -1.938402e+03  1.458425e+03 -1.270817e+03  2.738500e+03 0.0 0.0 9.0
#pdf 21 2 2.936700e-01 5.010224e-01 5000.0 3.896281e-02 2.778699e-03
</event>
<event>
4 7 1.0 5000.0 7.905138e-03 7.739137e-02
21 -1 0 0 103 101  0.000000e+00  0.000000e+00  3.506759e+03  3.506759e+03 0.0 0.0 9.0
 2 -1 0 0 101   0  0.000000e+00  0.000000e+00 -1.824370e+03  1.824370e+03 0.0 0.0 9.0
 2  1 1 2 103   0 -1.311042e+03 -6.648026e+02 -1.328010e+03  1.981011e+03 0.0022 0.0 9.0
22  1 1 2   0   0  1.311042e+03  6.648026e+02  3.010399e+03  3.350118e+03 0.0 0.0 9.0
#pdf 21 2 5.395013e-01 2.806724e-01 5000.0 1.611373e-03 4.564497e-02
</event>
<event>
4 7 1.0 5000.0 7.905138e-03 7.739137e-02
21 -1 0 0 103 101  0.000000e+00  0.000000e+00  2.552848e+03  2.552848e+03 0.0 0.0 9.0
 2 -1 0 0 101   0  0.000000e+00  0.000000e+00 -2.483430e+03  2.483430e+03 0.0 0.0 9.0
 2  1 1 2 103   0 -1.830487e+03 -1.709081e+03  2.958497e+02  2.521739e+03 0.0022 0.0 9.0
22  1 1 2   0   0  1.830487e+03  1.709081e+03 -2.264317e+02  2.514540e+03 0.0 0.0 9.0
#pdf 21 2 3.927459e-01 3.820662e-01 5000.0 1.147998e-02 1.313220e-02
</event>
<event>
4 7 1.0 5000.0 7.905138e-03 7.739137e-02
 2 -1 0 0 101   0  0.000000e+00  0.000000e+00  1.577101e+03  1.577101e+03 0.0 0.0 9.0
21 -1 0 0 103 101  0.000000e+00  0.000000e+00 -3.757347e+03  3.757347e+03 0.0 0.0 9.0
22  1 1 2   0   0  1.624589e+02 -6.431281e+02 -3.656411e+03  3.716093e+03 0.0 0.0 9.0
 2  1 1 2 103   0 -1.624589e+02  6.431281e+02  1.476165e+03  1.618354e+03 0.0022 0.0 9.0
#pdf 2 21 2.426309e-01 5.780533e-01 5000.0 3.235186e-01 3.579573e-02
</event>
<event>
4 7 1.0 5000.0 7.905138e-03 7.739137e-02
21 -1 0 0 103 101  0.000000e+00  0.000000e+00  1.790561e+03  1.790561e+03 0.0 0.0 9.0
 2 -1 0 0 101   0  0.000000e+00  0.000000e+00 -3.410155e+03  3.410155e+03 0.0 0.0 9.0
 2  1 1 2 103   0 -1.392638e+03 -1.596223e+02  1.331679e+03  1.933465e+03 0.0022 0.0 9.0
22  1 1 2   0   0  1.392638e+03  1.596223e+02 -2.951273e+03  3.267251e+03 0.0 0.0 9.0
#pdf 21 2 2.754709e-01 5.246392e-01 5000.0 4.866138e-02 1.996406e-03
</event>
<event>
4 7 1.0 5000.0 7.905138e-03 7.739137e-02
21 -1 0 0 103 101  0.000000e+00  0.000000e+00  1.456279e+03  1.456279e+03 0.0 0.0 9.0
 2 -1 0 0 101   0  0.000000e+00  0.000000e+00 -4.230121e+03  4.230121e+03 0.0 0.0 9.0
22  1 1 2   0   0 -1.599953e+03  6.373496e+02 -3.434251e+03  3.841893e+03 0.0 0.0 9.0
 2  1 1 2 103   0  1.599953e+03 -6.373496e+02  6.604091e+02  1.844507e+03 0.0022 0.0 9.0
#pdf 21 2 2.240429e-01 6.507878e-01 5000.0 9.236908e-02 2.732100e-04
</event>
<event>
4 7 1.0 5000.0 7.905138e-03 7.739137e-02
21 -1 0 0 103 101  0.000000e+00  0.000000e+00  4.079988e+03  4.079988e+03 0.0 0.0 9.0
 2 -1 0 0 101   0  0.000000e+00  0.000000e+00 -1.543534e+03  1.543534e+03 0.0 0.0 9.0
22  1 1 2   0   0  7.400129e+02  2.253335e+03  3.494203e+02  2.397339e+03 0.0 0.0 9.0
 2  1 1 2 103   0 -7.400129e+02 -2.253335e+03  2.187034e+03  3.226183e+03 0.0022 0.0 9.0
#pdf 21 2 6.276905e-01 2.374667e-01 5000.0 4.072847e-04 7.804470e-02
</event>
<event>
4 7 1.0 5000.0 7.905138e-03 7.739137e-02
21 -1 0 0 103 101  0.000000e+00  0.000000e+00  1.684014e+03  1.684014e+03 0.0 0.0 9.0
 2 -1 0 0 101   0  0.000000e+00  0.000000e+00 -2.914316e+03  2.914316e+03 0.0 0.0 9.0
22  1 1 2   0   0 -6.707968e+02  1.621018e+03  7.888396e+02  1.923522e+03 0.0 0.0 9.0
 2  1 1 2 103   0  6.707968e+02 -1.621018e+03 -2.019142e+03  2.674809e+03 0.0022 0.0 9.0
#pdf 21 2 2.590791e-01 4.483564e-01 5000.0 5.959153e-02 5.634557e-03
</event>
<event>
4 7 1.0 5000.0 7.905138e-03 7.739137e-02
21 -1 0 0 103 101  0.000000e+00  0.000000e+00  2.392606e+03  2.392606e+03 0.0 0.0 9.0
 2 -1 0 0 101   0  0.000000e+00  0.000000e+00 -2.933567e+03  2.933567e+03 0.0 0.0 9.0
 2  1 1 2 103   0  2.430304e+03  6.588235e+02 -1.098439e+03  2.747179e+03 0.0022 0.0 9.0
22  1 1 2   0   0 -2.430304e+03 -6.588235e+02  5.574785e+02  2.578994e+03 0.0 0.0 9.0
#pdf 21 2 3.680932e-01 4.513180e-01 5000.0 1.560380e-02 5.424049e-03
</event>
<event>
4 7 1.0 5000.0 7.905138e-03 7.739137e-02
 2 -1 0 0 101   0  0.000000e+00  0.000000e+00  2.729364e+03  2.729364e+03 0.0 0.0 9.0
21 -1 0 0 103 101  0.000000e+00  0.000000e+00 -2.353610e+03  2.353610e+03 0.0 0.0 9.0
22  1 1 2   0   0  2.387837e+03  8.241782e+02 -1.962374e+01  2.526147e+03 0.0 0.0 9.0
 2  1 1 2 103   0 -2.387837e+03 -8.241782e+02  3.953777e+02  2.556826e+03 0.0022 0.0 9.0
#pdf 2 21 4.199021e-01 3.620938e-01 5000.0 1.254704e-01 1.789893e-01
</event>
<event>
4 7 1.0 5000.0 7.905138e-03 7.739137e-02
21 -1 0 0 103 101  0.000000e+00  0.000000e+00  2.353391e+03  2.353391e+03 0.0 0.0 9.0
 2 -1 0 0 101   0  0.000000e+00  0.000000e+00 -2.432610e+03  2.432610e+03 0.0 0.0 9.0
 2  1 1 2 103   0  4.245235e+02  1.095783e+02  2.312872e+03  2.354061e+03 0.0022 0.0 9.0
22  1 1 2   0   0 -4.245235e+02 -1.095783e+02 -2.392092e+03  2.431940e+03 0.0 0.0 9.0
#pdf 21 2 3.620601e-01 3.742478e-01 5000.0 1.681885e-02 1.446638e-02
</event>
<event>
4 7 1.0 5000.0 7.905138e-03 7.739137e-02
 2 -1 0 0 101   0  0.000000e+00  0.000000e+00  2.503197e+03  2.503197e+03 0.0 0.0 9.0
21 -1 0 0 103 101  0.000000e+00  0.000000e+00 -2.288555e+03  2.288555e+03 0.0 0.0 9.0
22  1 1 2   0   0  5.808196e+02 -2.257717e+03 -4.355018e+02  2.371561e+03 0.0 0.0 9.0
 2  1 1 2 103   0 -5.808196e+02  2.257717e+03  6.501441e+02  2.420191e+03 0.0022 0.0 9.0
#pdf 2 21 3.851072e-01 3.520853e-01 5000.0 1.562831e-01 1.894455e-01
</event>
<event>
4 7 1.0 5000.0 7.905138e-03 7.739137e-02
21 -1 0 0 103 101  0.000000e+00  0.000000e+00  2.788543e+03  2.788543e+03 0.0 0.0 9.0
 2 -1 0 0 101   0  0.000000e+00  0.000000e+00 -2.225800e+03  2.225800e+03 0.0 0.0 9.0
 2  1 1 2 103   0 -4.440753e+02  1.381034e+03 -1.756914e+03  2.278422e+03 0.0022 0.0 9.0
22  1 1 2   0   0  4.440753e+02 -1.381034e+03  2.319657e+03  2.735922e+03 0.0 0.0 9.0
#pdf 21 2 4.290066e-01 3.424308e-01 5000.0 7.242650e-03 2.141646e-02
</event>
<event>
4 7 1.0 5000.0 7.905138e-03 7.739137e-02
21 -1 0 0 103 101  0.000000e+00  0.000000e+00  1.484700e+03  1.484700e+03 0.0 0.0 9.0
 2 -1 0 0 101   0  0.000000e+00  0.000000e+00 -4.043125e+03  4.043125e+03 0.0 0.0 9.0
 2  1 1 2 103   0 -1.473193e+03  1.770909e+03 -3.378017e+02  2.328202e+03 0.0022 0.0 9.0
22  1 1 2   0   0  1.473193e+03 -1.770909e+03 -2.220623e+03  3.199622e+03 0.0 0.0 9.0
#pdf 21 2 2.284154e-01 6.220192e-01 5000.0 8.736555e-02 4.481251e-04
</event>
<event>
4 7 1.0 5000.0 7.905138e-03 7.739137e-02
 2 -1 0 0 101   0  0.000000e+00  0.000000e+00  1.950500e+03  1.950500e+03 0.0 0.0 9.0
21 -1 0 0 103 101  0.000000e+00  0.000000e+00 -2.946093e+03  2.946093e+03 0.0 0.0 9.0
 2  1 1 2 103   0  8.430871e+02  1.891272e+02 -2.781520e+03  2.912631e+03 0.0022 0.0 9.0
22  1 1 2   0   0 -8.430871e+02 -1.891272e+02  1.785927e+03  1.983961e+03 0.0 0.0 9.0
#pdf 2 21 3.000769e-01 4.532450e-01 5000.0 2.491080e-01 9.994932e-02
</event>
<event>
4 7 1.0 5000.0 7.905138e-03 7.739137e-02
 2 -1 0 0 101   0  0.000000e+00  0.000000e+00  2.953846e+03  2.953846e+03 0.0 0.0 9.0
21 -1 0 0 103 101  0.000000e+00  0.000000e+00 -2.150253e+03  2.150253e+03 0.0 0.0 9.0
22  1 1 2   0   0  1.328976e+03 -7.323609e+02  2.439418e+03  2.872854e+03 0.0 0.0 9.0
 2  1 1 2 103   0 -1.328976e+03  7.323609e+02 -1.635825e+03  2.231245e+03 0.0022 0.0 9.0
#pdf 2 21 4.544378e-01 3.308081e-01 5000.0 9.910615e-02 2.128068e-01
</event>
<event>
4 7 1.0 5000.0 7.905138e-03 7.739137e-02
21 -1 0 0 103 101  0.000000e+00  0.000000e+00  1.628151e+03  1.628151e+03 0.0 0.0 9.0
 2 -1 0 0 101   0  0.000000e+00  0.000000e+00 -3.844480e+03  3.844480e+03 0.0 0.0 9.0
 2  1 1 2 103   0  1.691314e+03 -1.072933e+03  5.315416e+02  2.072260e+03 0.0022 0.0 9.0
22  1 1 2   0   0 -1.691314e+03  1.072933e+03 -2.747871e+03  3.400371e+03 0.0 0.0 9.0
#pdf 21 2 2.504848e-01 5.914585e-01 5000.0 6.633932e-02 7.349024e-04
</event>
<event>
4 7 1.0 5000.0 7.905138e-03 7.739137e-02
21 -1 0 0 103 101  0.000000e+00  0.000000e+00  1.818706e+03  1.818706e+03 0.0 0.0 9.0
 2 -1 0 0 101   0  0.000000e+00  0.000000e+00 -2.642267e+03  2.642267e+03 0.0 0.0 9.0
22  1 1 2   0   0 -8.384988e+02  1.902078e+03  2.964726e+02  2.099733e+03 0.0 0.0 9.0
 2  1 1 2 103   0  8.384988e+02 -1.902078e+03 -1.120034e+03  2.361241e+03 0.0022 0.0 9.0
#pdf 21 2 2.798009e-01 4.065027e-01 5000.0 4.613783e-02 9.653960e-03
</event>
<event>
4 7 1.0 5000.0 7.905138e-03 7.739137e-02
21 -1 0 0 103 101  0.000000e+00  0.000000e+00  2.538111e+03  2.538111e+03 0.0 0.0 9.0
 2 -1 0 0 101   0  0.000000e+00  0.000000e+00 -2.482577e+03  2.482577e+03 0.0 0.0 9.0
 2  1 1 2 103   0 -4.660930e+02  1.528649e+02  2.489715e+03  2.537576e+03 0.0022 0.0 9.0
22  1 1 2   0   0  4.660930e+02 -1.528649e+02 -2.434180e+03  2.483112e+03 0.0 0.0 9.0
#pdf 21 2 3.904787e-01 3.819349e-01 5000.0 1.181209e-02 1.315383e-02
</event>
<event>
4 7 1.0 5000.0 7.905138e-03 7.739137e-02
21 -1 0 0 103 101  0.000000e+00  0.000000e+00  3.058803e+03  3.058803e+03 0.0 0.0 9.0
 2 -1 0 0 101   0  0.000000e+00  0.000000e+00 -2.022077e+03  2.022077e+03 0.0 0.0 9.0
22  1 1 2   0   0  1.840991e+03 -1.503896e+03  1.264948e+03  2.692777e+03 0.0 0.0 9.0
 2  1 1 2 103   0 -1.840991e+03  1.503896e+03 -2.282225e+02  2.388103e+03 0.0022 0.0 9.0
#pdf 21 2 4.705851e-01 3.110887e-01 5000.0 4.201880e-03 3.146930e-02
</event>
<event>
4 7 1.0 5000.0 7.905138e-03 7.739137e-02
 2 -1 0 0 101   0  0.000000e+00  0.000000e+00  1.551550e+03  1.551550e+03 0.0 0.0 9.0
21 -1 0 0 103 101  0.000000e+00  0.000000e+00 -3.942204e+03  3.942204e+03 0.0 0.0 9.0
22  1 1 2   0   0  1.862577e+03 -1.263495e+03 -5.672770e+01  2.251406e+03 0.0 0.0 9.0
 2  1 1 2 103   0 -1.862577e+03  1.263495e+03 -2.333925e+03  3.242348e+03 0.0022 0.0 9.0
#pdf 2 21 2.387001e-01 6.064929e-01 5000.0 3.288307e-01 2.701777e-02
</event>
<event>
4 7 1.0 5000.0 7.905138e-03 7.739137e-02
21 -1 0 0 103 101  0.000000e+00  0.000000e+00  2.207645e+03  2.207645e+03 0.0 0.0 9.0
 2 -1 0 0 101   0  0.000000e+00  0.000000e+00 -2.770298e+03  2.770298e+03 0.0 0.0 9.0
22  1 1 2   0   0  2.144767e+03 -7.402702e+02  7.087918e+02  2.377059e+03 0.0 0.0 9.0
 2  1 1 2 103   0 -2.144767e+03  7.402702e+02 -1.271445e+03  2.600884e+03 0.0022 0.0 9.0
#pdf 21 2 3.396377e-01 4.261997e-01 5000.0 2.216103e-02 7.509321e-03
</event>
<event>
4 7 1.0 5000.0 7.905138e-03 7.739137e-02
21 -1 0 0 103 101  0.000000e+00  0.000000e+00  2.204273e+03  2.204273e+03 0.0 0.0 9.0
 2 -1 0 0 101   0  0.000000e+00  0.000000e+00 -2.569367e+03  2.569367e+03 0.0 0.0 9.0
22  1 1 2   0   0 -6.075905e+02 -3.463387e+02 -2.463975e+03  2.561306e+03 0.0 0.0 9.0
 2  1 1 2 103   0  6.075905e+02  3.463387e+02  2.098881e+03  2.212334e+03 0.0022 0.0 9.0
#pdf 21 2 3.391189e-01 3.952872e-01 5000.0 2.230239e-02 1.111919e-02
</event>
<event>
4 7 1.0 5000.0 7.905138e-03 7.739137e-02
21 -1 0 0 103 101  0.000000e+00  0.000000e+00  1.987279e+03  1.987279e+03 0.0 0.0 9.0
 2 -1 0 0 101   0  0.000000e+00  0.000000e+00 -2.966943e+03  2.966943e+03 0.0 0.0 9.0
22  1 1 2   0   0  5.349777e+02 -1.913134e+03 -1.914335e+03  2.758797e+03 0.0 0.0 9.0
 2  1 1 2 103   0 -5.349777e+02  1.913134e+03  9.346714e+02  2.195425e+03 0.0022 0.0 9.0
#pdf 21 2 3.057353e-01 4.564527e-01 5000.0 3.361029e-02 5.069506e-03
</event>
<event>
4 7 1.0 5000.0 7.905138e-03 7.739137e-02
21 -1 0 0 103 101  0.000000e+00  0.000000e+00  4.216484e+03  4.216484e+03 0.0 0.0 9.0
 2 -1 0 0 101   0  0.000000e+00  0.000000e+00 -1.471800e+03  1.471800e+03 0.0 0.0 9.0
 2  1 1 2 103   0  3.361565e+02  1.466132e+03 -8.948085e+02  1.750207e+03 0.0022 0.0 9.0
22  1 1 2   0   0 -3.361565e+02 -1.466132e+03  3.639492e+03  3.938077e+03 0.0 0.0 9.0
#pdf 21 2 6.486898e-01 2.264308e-01 5000.0 2.834367e-04 8.959560e-02
</event>
<event>
4 7 1.0 5000.0 7.905138e-03 7.739137e-02
21 -1 0 0 103 101  0.000000e+00  0.000000e+00  3.640150e+03  3.640150e+03 0.0 0.0 9.0
 2 -1 0 0 101   0  0.000000e+00  0.000000e+00 -1.647449e+03  1.647449e+03 0.0 0.0 9.0
 2  1 1 2 103   0  1.782818e+03 -3.027011e+01 -8.158355e+02  1.960853e+03 0.0022 0.0 9.0
22  1 1 2   0   0 -1.782818e+03  3.027011e+01  2.808536e+03  3.326745e+03 0.0 0.0 9.0
#pdf 21 2 5.600230e-01 2.534537e-01 5000.0 1.192896e-03 6.394078e-02
</event>
<event>
4 7 1.0 5000.0 7.905138e-03 7.739137e-02
21 -1 0 0 103 101  0.000000e+00  0.000000e+00  2.566867e+03  2.566867e+03 0.0 0.0 9.0
 2 -1 0 0 101   0  0.000000e+00  0.000000e+00 -2.387509e+03  2.387509e+03 0.0 0.0 9.0
22  1 1 2   0   0 -2.151111e+03  1.095954e+03 -4.584260e+02  2.457345e+03 0.0 0.0 9.0
 2  1 1 2 103   0  2.151111e+03 -1.095954e+03  6.377838e+02  2.497030e+03 0.0022 0.0 9.0
#pdf 21 2 3.949026e-01 3.673091e-01 5000.0 1.117304e-02 1.575903e-02
</event>
<event>
4 7 1.0 5000.0 7.905138e-03 7.739137e-02
 2 -1 0 0 101   0  0.000000e+00  0.000000e+00  1.936911e+03  1.936911e+03 0.0 0.0 9.0
21 -1 0 0 103 101  0.000000e+00  0.000000e+00 -3.157266e+03  3.157266e+03 0.0 0.0 9.0
 2  1 1 2 103   0  3.997470e+02  9.173716e+02 -2.939410e+03  3.105076e+03 0.0022 0.0 9.0
22  1 1 2   0   0 -3.997470e+02 -9.173716e+02  1.719056e+03  1.989100e+03 0.0 0.0 9.0
#pdf 2 21 2.979863e-01 4.857332e-01 5000.0 2.516675e-01 7.870177e-02
</event>
<event>
4 7 1.0 5000.0 7.905138e-03 7.739137e-02
 2 -1 0 0 101   0  0.000000e+00  0.000000e+00  2.133945e+03  2.133945e+03 0.0 0.0 9.0
21 -1 0 0 103 101  0.000000e+00  0.000000e+00 -3.074009e+03  3.074009e+03 0.0 0.0 9.0
 2  1 1 2 103   0  2.270205e+03  9.721075e+02  2.202345e+02  2.479380e+03 0.0022 0.0 9.0
22  1 1 2   0   0 -2.270205e+03 -9.721075e+02 -1.160298e+03  2.728574e+03 0.0 0.0 9.0
#pdf 2 21 3.282993e-01 4.729244e-01 5000.0 2.156618e-01 8.666263e-02
</event>
<event>
4 7 1.0 5000.0 7.905138e-03 7.739137e-02
21 -1 0 0 103 101  0.000000e+00  0.000000e+00  1.634675e+03  1.634675e+03 0.0 0.0 9.0
 2 -1 0 0 101   0  0.000000e+00  0.000000e+00 -3.763882e+03  3.763882e+03 0.0 0.0 9.0
 2  1 1 2 103   0  1.566743e+03  1.751948e+03 -2.017424e+02  2.358963e+03 0.0022 0.0 9.0
22  1 1 2   0   0 -1.566743e+03 -1.751948e+03 -1.927465e+03  3.039594e+03 0.0 0.0 9.0
#pdf 21 2 2.514884e-01 5.790588e-01 5000.0 6.552161e-02 8.916140e-04
</event>
<event>
4 7 1.0 5000.0 7.905138e-03 7.739137e-02
 2 -1 0 0 101   0  0.000000e+00  0.000000e+00  2.392478e+03  2.392478e+03 0.0 0.0 9.0
21 -1 0 0 103 101  0.000000e+00  0.000000e+00 -2.614076e+03  2.614076e+03 0.0 0.0 9.0
22  1 1 2   0   0  8.233244e+02  1.150694e+03  1.953300e+03  2.411917e+03 0.0 0.0 9.0
 2  1 1 2 103   0 -8.233244e+02 -1.150694e+03 -2.174899e+03  2.594638e+03 0.0022 0.0 9.0
#pdf 2 21 3.680735e-01 4.021656e-01 5000.0 1.729022e-01 1.406458e-01
</event>
<event>
4 7 1.0 5000.0 7.905138e-03 7.739137e-02
 2 -1 0 0 101   0  0.000000e+00  0.000000e+00  1.566670e+03  1.566670e+03 0.0 0.0 9.0
21 -1 0 0 103 101  0.000000e+00  0.000000e+00 -3.915083e+03  3.915083e+03 0.0 0.0 9.0
22  1 1 2   0   0 -2.091235e+02  7.182833e+02  1.438634e+03  1.621522e+03 0.0 0.0 9.0
 2  1 1 2 103   0  2.091235e+02 -7.182833e+02 -3.787047e+03  3.860232e+03 0.0022 0.0 9.0
#pdf 2 21 2.410262e-01 6.023205e-01 5000.0 3.256795e-01 2.819346e-02
</event>
<event>
4 7 1.0 5000.0 7.905138e-03 7.739137e-02
21 -1 0 0 103 101  0.000000e+00  0.000000e+00  1.818343e+03  1.818343e+03 0.0 0.0 9.0
 2 -1 0 0 101   0  0.000000e+00  0.000000e+00 -3.248534e+03  3.248534e+03 0.0 0.0 9.0
22  1 1 2   0   0  2.317947e+03 -4.000754e+02 -7.761110e+01  2.353500e+03 0.0 0.0 9.0
 2  1 1 2 103   0 -2.317947e+03  4.000754e+02 -1.352580e+03  2.713376e+03 0.0022 0.0 9.0
#pdf 21 2 2.797451e-01 4.997744e-01 5000.0 4.616959e-02 2.827180e-03
</event>
<event>
4 7 1.0 5000.0 7.905138e-03 7.739137e-02
 2 -1 0 0 101   0  0.000000e+00  0.000000e+00  4.237445e+03  4.237445e+03 0.0 0.0 9.0
21 -1 0 0 103 101  0.000000e+00  0.000000e+00 -1.183003e+03  1.183003e+03 0.0 0.0 9.0
 2  1 1 2 103   0 -1.806933e+03 -5.714770e+02  8.408896e+01  1.897014e+03 0.0022 0.0 9.0
22  1 1 2   0   0  1.806933e+03  5.714770e+02  2.970352e+03  3.523434e+03 0.0 0.0 9.0
#pdf 2 21 6.519146e-01 1.820005e-01 5000.0 1.642500e-02 4.067100e-01
</event>
<event>
4 7 1.0 5000.0 7.905138e-03 7.739137e-02
 2 -1 0 0 101   0  0.000000e+00  0.000000e+00  2.310482e+03  2.310482e+03 0.0 0.0 9.0
21 -1 0 0 103 101  0.000000e+00  0.000000e+00 -2.718004e+03  2.718004e+03 0.0 0.0 9.0
22  1 1 2   0   0  2.382998e+03 -7.737529e+02 -2.541795e+02  2.518329e+03 0.0 0.0 9.0
 2  1 1 2 103   0 -2.382998e+03  7.737529e+02 -1.533430e+02  2.510157e+03 0.0022 0.0 9.0
#pdf 2 21 3.554587e-01 4.181545e-01 5000.0 1.858827e-01 1.269168e-01
</event>
<event>
4 7 1.0 5000.0 7.905138e-03 7.739137e-02
21 -1 0 0 103 101  0.000000e+00  0.000000e+00  3.536739e+03  3.536739e+03 0.0 0.0 9.0
 2 -1 0 0 101   0  0.000000e+00  0.000000e+00 -1.793058e+03  1.793058e+03 0.0 0.0 9.0
 2  1 1 2 103   0  8.209445e+02  5.410374e+02 -1.581555e+03  1.862253e+03 0.0022 0.0 9.0
22  1 1 2   0   0 -8.209445e+02 -5.410374e+02  3.325236e+03  3.467544e+03 0.0 0.0 9.0
#pdf 21 2 5.441137e-01 2.758551e-01 5000.0 1.507390e-03 4.843225e-02
</event>
<event>
4 7 1.0 5000.0 7.905138e-03 7.739137e-02
21 -1 0 0 103 101  0.000000e+00  0.000000e+00  1.695720e+03  1.695720e+03 0.0 0.0 9.0
 2 -1 0 0 101   0  0.000000e+00  0.000000e+00 -3.361751e+03  3.361751e+03 0.0 0.0 9.0
22  1 1 2   0   0  1.892762e+03 -1.175860e+03  7.523090e+01  2.229541e+03 0.0 0.0 9.0
 2  1 1 2 103   0 -1.892762e+03  1.175860e+03 -1.741262e+03  2.827930e+03 0.0022 0.0 9.0
#pdf 21 2 2.608800e-01 5.171924e-01 5000.0 5.826299e-02 2.218114e-03
</event>
<event>
4 7 1.0 5000.0 7.905138e-03 7.739137e-02
21 -1 0 0 103 101  0.000000e+00  0.000000e+00  1.994469e+03  1.994469e+03 0.0 0.0 9.0
 2 -1 0 0 101   0  0.000000e+00  0.000000e+00 -3.156140e+03  3.156140e+03 0.0 0.0 9.0
 2  1 1 2 103   0 -1.700701e+03  1.520335e+03  4.913078e+02  2.333492e+03 0.0022 0.0 9.0
22  1 1 2   0   0  1.700701e+03 -1.520335e+03 -1.652979e+03  2.817116e+03 0.0 0.0 9.0
#pdf 21 2 3.068413e-01 4.855600e-01 5000.0 3.315950e-02 3.433270e-03
</event>
<event>
4 7 1.0 5000.0 7.905138e-03 7.739137e-02
 2 -1 0 0 101   0  0.000000e+00  0.000000e+00  1.898467e+03  1.898467e+03 0.0 0.0 9.0
21 -1 0 0 103 101  0.000000e+00  0.000000e+00 -3.156964e+03  3.156964e+03 0.0 0.0 9.0
 2  1 1 2 103   0 -1.996365e+03  6.341286e+02 -1.937640e+03  2.853426e+03 0.0022 0.0 9.0
22  1 1 2   0   0  1.996365e+03 -6.341286e+02  6.791423e+02  2.202005e+03 0.0 0.0 9.0
#pdf 2 21 2.920718e-01 4.856868e-01 5000.0 2.590008e-01 7.872963e-02
</event>
<event>
4 7 1.0 5000.0 7.905138e-03 7.739137e-02
 2 -1 0 0 101   0  0.000000e+00  0.000000e+00  1.850533e+03  1.850533e+03 0.0 0.0 9.0
21 -1 0 0 103 101  0.000000e+00  0.000000e+00 -3.382546e+03  3.382546e+03 0.0 0.0 9.0
22  1 1 2   0   0 -2.457027e+01 -1.161024e+03 -3.083609e+03  3.295030e+03 0.0 0.0 9.0
 2  1 1 2 103   0  2.457027e+01  1.161024e+03  1.551596e+03  1.938048e+03 0.0022 0.0 9.0
#pdf 2 21 2.846974e-01 5.203917e-01 5000.0 2.682954e-01 5.975392e-02
</event>
<event>
4 7 1.0 5000.0 7.905138e-03 7.739137e-02
21 -1 0 0 103 101  0.000000e+00  0.000000e+00  2.212455e+03  2.212455e+03 0.0 0.0 9.0
 2 -1 0 0 101   0  0.000000e+00  0.000000e+00 -2.930720e+03  2.930720e+03 0.0 0.0 9.0
22  1 1 2   0   0 -2.093938e+03 -2.381717e+02  1.084272e+03  2.370010e+03 0.0 0.0 9.0
 2  1 1 2 103   0  2.093938e+03  2.381717e+02 -1.802537e+03  2.773165e+03 0.0022 0.0 9.0
#pdf 21 2 3.403777e-01 4.508800e-01 5000.0 2.196110e-02 5.454947e-03
</event>
<event>
4 7 1.0 5000.0 7.905138e-03 7.739137e-02
21 -1 0 0 103 101  0.000000e+00  0.000000e+00  4.169663e+03  4.169663e+03 0.0 0.0 9.0
 2 -1 0 0 101   0  0.000000e+00  0.000000e+00 -1.482495e+03  1.482495e+03 0.0 0.0 9.0
 2  1 1 2 103   0  8.321354e+02 -1.049968e+03  3.724271e+03  3.957913e+03 0.0022 0.0 9.0
22  1 1 2   0   0 -8.321354e+02  1.049968e+03 -1.037103e+03  1.694245e+03 0.0 0.0 9.0
#pdf 21 2 6.414867e-01 2.280761e-01 5000.0 3.216517e-04 8.774122e-02
</event>
<event>
4 7 1.0 5000.0 7.905138e-03 7.739137e-02
21 -1 0 0 103 101  0.000000e+00  0.000000e+00  3.455214e+03  3.455214e+03 0.0 0.0 9.0
 2 -1 0 0 101   0  0.000000e+00  0.000000e+00 -1.882597e+03  1.882597e+03 0.0 0.0 9.0
 2  1 1 2 103   0 -2.311211e+03 -5.732538e+02 -1.696093e+02  2.387275e+03 0.0022 0.0 9.0
22  1 1 2   0   0  2.311211e+03  5.732538e+02  1.742226e+03  2.950537e+03 0.0 0.0 9.0
#pdf 21 2 5.315714e-01 2.896304e-01 5000.0 1.808841e-03 4.092193e-02
</event>
<event>
4 7 1.0 5000.0 7.905138e-03 7.739137e-02
21 -1 0 0 103 101  0.000000e+00  0.000000e+00  2.390937e+03  2.390937e+03 0.0 0.0 9.0
 2 -1 0 0 101   0  0.000000e+00  0.000000e+00 -2.729539e+03  2.729539e+03 0.0 0.0 9.0
22  1 1 2   0   0 -1.122501e+03 -1.333181e+03  1.702623e+03  2.436453e+03 0.0 0.0 9.0
 2  1 1 2 103   0  1.122501e+03  1.333181e+03 -2.041225e+03  2.684023e+03 0.0022 0.0 9.0
#pdf 21 2 3.678365e-01 4.199291e-01 5000.0 1.565440e-02 8.137655e-03
</event>
<event>
4 7 1.0 5000.0 7.905138e-03 7.739137e-02
 2 -1 0 0 101   0  0.000000e+00  0.000000e+00  1.587508e+03  1.587508e+03 0.0 0.0 9.0
21 -1 0 0 103 101  0.000000e+00  0.000000e+00 -3.937419e+03  3.937419e+03 0.0 0.0 9.0
 2  1 1 2 103   0 -1.504452e+03 -3.680214e+02 -3.343500e+03  3.684808e+03 0.0022 0.0 9.0
22  1 1 2   0   0  1.504452e+03  3.680214e+02  9.935899e+02  1.840119e+03 0.0 0.0 9.0
#pdf 2 21 2.442320e-01 6.057567e-01 5000.0 3.213746e-01 2.722263e-02
</event>
<event>
4 7 1.0 5000.0 7.905138e-03 7.739137e-02
21 -1 0 0 103 101  0.000000e+00  0.000000e+00  2.458472e+03  2.458472e+03 0.0 0.0 9.0
 2 -1 0 0 101   0  0.000000e+00  0.000000e+00 -2.007587e+03  2.007587e+03 0.0 0.0 9.0
 2  1 1 2 103   0  6.773410e+02 -2.067549e+03 -2.263656e+02  2.187416e+03 0.0022 0.0 9.0
22  1 1 2   0   0 -6.773410e+02  2.067549e+03  6.772508e+02  2.278644e+03 0.0 0.0 9.0
#pdf 21 2 3.782265e-01 3.088596e-01 5000.0 1.377610e-02 3.234772e-02
</event>
<event>
4 7 1.0 5000.0 7.905138e-03 7.739137e-02
 2 -1 0 0 101   0  0.000000e+00  0.000000e+00  1.693678e+03  1.693678e+03 0.0 0.0 9.0
21 -1 0 0 103 101  0.000000e+00  0.000000e+00 -3.636618e+03  3.636618e+03 0.0 0.0 9.0
22  1 1 2   0   0 -1.047370e+03 -2.159534e+03 -1.649540e+03  2.912311e+03 0.0 0.0 9.0
 2  1 1 2 103   0  1.047370e+03  2.159534e+03 -2.934005e+02  2.417986e+03 0.0022 0.0 9.0
#pdf 2 21 2.605658e-01 5.594797e-01 5000.0 2.995577e-01 4.257644e-02
</event>
<event>
4 7 1.0 5000.0 7.905138e-03 7.739137e-02
21 -1 0 0 103 101  0.000000e+00  0.000000e+00  1.871729e+03  1.871729e+03 0.0 0.0 9.0
 2 -1 0 0 101   0  0.000000e+00  0.000000e+00 -3.738543e+03  3.738543e+03 0.0 0.0 9.0
 2  1 1 2 103   0  1.233241e+03  1.812785e+03 -2.502863e+03  3.327371e+03 0.0022 0.0 9.0
22  1 1 2   0   0 -1.233241e+03 -1.812785e+03  6.360496e+02  2.282900e+03 0.0 0.0 9.0
#pdf 21 2 2.879583e-01 5.751604e-01 5000.0 4.175838e-02 9.466933e-04
</event>
<event>
4 7 1.0 5000.0 7.905138e-03 7.739137e-02
21 -1 0 0 103 101  0.000000e+00  0.000000e+00  3.330797e+03  3.330797e+03 0.0 0.0 9.0
 2 -1 0 0 101   0  0.000000e+00  0.000000e+00 -1.792789e+03  1.792789e+03 0.0 0.0 9.0
 2  1 1 2 103   0 -1.453510e+02 -7.320321e+02 -1.670387e+03  1.829532e+03 0.0022 0.0 9.0
22  1 1 2   0   0  1.453510e+02  7.320321e+02  3.208394e+03  3.294054e+03 0.0 0.0 9.0
#pdf 21 2 5.124303e-01 2.758138e-01 5000.0 2.371698e-03 4.845686e-02
</event>
<event>
4 7 1.0 5000.0 7.905138e-03 7.739137e-02
21 -1 0 0 103 101  0.000000e+00  0.000000e+00  2.315150e+03  2.315150e+03 0.0 0.0 9.0
 2 -1 0 0 101   0  0.000000e+00  0.000000e+00 -3.576713e+03  3.576713e+03 0.0 0.0 9.0
22  1 1 2   0   0 -2.117150e+03  1.926324e+03 -9.337454e+02  3.010802e+03 0.0 0.0 9.0
 2  1 1 2 103   0  2.117150e+03 -1.926324e+03 -3.278177e+02  2.881061e+03 0.0022 0.0 9.0
#pdf 21 2 3.561769e-01 5.502635e-01 5000.0 1.807830e-02 1.376233e-03
</event>
<event>
4 7 1.0 5000.0 7.905138e-03 7.739137e-02
21 -1 0 0 103 101  0.000000e+00  0.000000e+00  1.752943e+03  1.752943e+03 0.0 0.0 9.0
 2 -1 0 0 101   0  0.000000e+00  0.000000e+00 -3.583163e+03  3.583163e+03 0.0 0.0 9.0
 2  1 1 2 103   0 -1.267917e+03 -1.347098e+02 -3.212063e+03  3.455880e+03 0.0022 0.0 9.0
22  1 1 2   0   0  1.267917e+03  1.347098e+02  1.381843e+03  1.880226e+03 0.0 0.0 9.0
#pdf 21 2 2.696836e-01 5.512558e-01 5000.0 5.224850e-02 1.356111e-03
</event>
<event>
4 7 1.0 5000.0 7.905138e-03 7.739137e-02
21 -1 0 0 103 101  0.000000e+00  0.000000e+00  1.530684e+03  1.530684e+03 0.0 0.0 9.0
 2 -1 0 0 101   0  0.000000e+00  0.000000e+00 -3.834478e+03  3.834478e+03 0.0 0.0 9.0
22  1 1 2   0   0 -2.248354e+03  3.243334e+02 -2.084305e+03  3.082956e+03 0.0 0.0 9.0
 2  1 1 2 103   0  2.248354e+03 -3.243334e+02 -2.194882e+02  2.282206e+03 0.0022 0.0 9.0
#pdf 21 2 2.354899e-01 5.899197e-01 5000.0 7.998356e-02 7.530302e-04
</event>
<event>
4 7 1.0 5000.0 7.905138e-03 7.739137e-02
21 -1 0 0 103 101  0.000000e+00  0.000000e+00  2.741722e+03  2.741722e+03 0.0 0.0 9.0
 2 -1 0 0 101   0  0.000000e+00  0.000000e+00 -2.264561e+03  2.264561e+03 0.0 0.0 9.0
 2  1 1 2 103   0 -1.330847e+03 -1.845662e+02  2.346649e+03  2.704067e+03 0.0022 0.0 9.0
22  1 1 2   0   0  1.330847e+03  1.845662e+02 -1.869488e+03  2.302217e+03 0.0 0.0 9.0
#pdf 21 2 4.218035e-01 3.483941e-01 5000.0 7.945208e-03 1.990918e-02
</event>
<event>
4 7 1.0 5000.0 7.905138e-03 7.739137e-02
 2 -1 0 0 101   0  0.000000e+00  0.000000e+00  2.579836e+03  2.579836e+03 0.0 0.0 9.0
21 -1 0 0 103 101  0.000000e+00  0.000000e+00 -2.630611e+03  2.630611e+03 0.0 0.0 9.0
 2  1 1 2 103   0  8.991498e+02 -1.797587e+03 -1.682800e+03  2.621375e+03 0.0022 0.0 9.0
22  1 1 2   0   0 -8.991498e+02  1.797587e+03  1.632026e+03  2.589072e+03 0.0 0.0 9.0
#pdf 2 21 3.968979e-01 4.047094e-01 5000.0 1.453702e-01 1.383999e-01
</event>
<event>
4 7 1.0 5000.0 7.905138e-03 7.739137e-02
 2 -1 0 0 101   0  0.000000e+00  0.000000e+00  3.585245e+03  3.585245e+03 0.0 0.0 9.0
21 -1 0 0 103 101  0.000000e+00  0.000000e+00 -1.720159e+03  1.720159e+03 0.0 0.0 9.0
 2  1 1 2 103   0 -1.631873e+03 -1.223259e+03  2.446128e+03  3.184795e+03 0.0022 0.0 9.0
22  1 1 2   0   0  1.631873e+03  1.223259e+03 -5.810418e+02  2.120609e+03 0.0 0.0 9.0
#pdf 2 21 5.515762e-01 2.646398e-01 5000.0 4.569671e-02 2.942001e-01
</event>
<event>
4 7 1.0 5000.0 7.905138e-03 7.739137e-02
 2 -1 0 0 101   0  0.000000e+00  0.000000e+00  1.446455e+03  1.446455e+03 0.0 0.0 9.0
21 -1 0 0 103 101  0.000000e+00  0.000000e+00 -4.238581e+03  4.238581e+03 0.0 0.0 9.0
 2  1 1 2 103   0  2.850972e+02 -2.260770e+03 -2.508232e+03  3.388745e+03 0.0022 0.0 9.0
22  1 1 2   0   0 -2.850972e+02  2.260770e+03 -2.838937e+02  2.296292e+03 0.0 0.0 9.0
#pdf 2 21 2.225316e-01 6.520894e-01 5000.0 3.509456e-01 1.639166e-02
</event>
<event>
4 7 1.0 5000.0 7.905138e-03 7.739137e-02
 2 -1 0 0 101   0  0.000000e+00  0.000000e+00  2.978223e+03  2.978223e+03 0.0 0.0 9.0
21 -1 0 0 103 101  0.000000e+00  0.000000e+00 -2.120170e+03  2.120170e+03 0.0 0.0 9.0
 2  1 1 2 103   0 -1.021033e+03 -1.444482e+03 -1.381541e+03  2.244481e+03 0.0022 0.0 9.0
22  1 1 2   0   0  1.021033e+03  1.444482e+03  2.239594e+03  2.853913e+03 0.0 0.0 9.0
#pdf 2 21 4.581882e-01 3.261800e-01 5000.0 9.648326e-02 2.180898e-01
</event>
<event>
4 7 1.0 5000.0 7.905138e-03 7.739137e-02
21 -1 0 0 103 101  0.000000e+00  0.000000e+00  4.831080e+03  4.831080e+03 0.0 0.0 9.0
 2 -1 0 0 101   0  0.000000e+00  0.000000e+00 -1.318349e+03  1.318349e+03 0.0 0.0 9.0
 2  1 1 2 103   0 -9.482815e+02 -2.447502e+02  4.590121e+03  4.693437e+03 0.0022 0.0 9.0
22  1 1 2   0   0  9.482815e+02  2.447502e+02 -1.077391e+03  1.455991e+03 0.0 0.0 9.0
#pdf 21 2 7.432430e-01 2.028229e-01 5000.0 4.298270e-05 1.212445e-01
</event>
<event>
4 7 1.0 5000.0 7.905138e-03 7.739137e-02
 2 -1 0 0 101   0  0.000000e+00  0.000000e+00  2.356889e+03  2.356889e+03 0.0 0.0 9.0
21 -1 0 0 103 101  0.000000e+00  0.000000e+00 -2.596376e+03  2.596376e+03 0.0 0.0 9.0
 2  1 1 2 103   0  2.274358e+03 -9.252283e+02  1.816373e+02  2.462061e+03 0.0022 0.0 9.0
22  1 1 2   0   0 -2.274358e+03  9.252283e+02 -4.211248e+02  2.491204e+03 0.0 0.0 9.0
#pdf 2 21 3.625982e-01 3.994425e-01 5000.0 1.784713e-01 1.430759e-01
</event>
<event>
4 7 1.0 5000.0 7.905138e-03 7.739137e-02
 2 -1 0 0 101   0  0.000000e+00  0.000000e+00  3.768243e+03  3.768243e+03 0.0 0.0 9.0
21 -1 0 0 103 101  0.000000e+00  0.000000e+00 -1.578896e+03  1.578896e+03 0.0 0.0 9.0
 2  1 1 2 103   0 -1.766469e+03  9.594833e+02 -4.196119e+02  2.053557e+03 0.0022 0.0 9.0
22  1 1 2   0   0  1.766469e+03 -9.594833e+02  2.608958e+03  3.293582e+03 0.0 0.0 9.0
#pdf 2 21 5.797296e-01 2.429071e-01 5000.0 3.522679e-02 3.231477e-01
</event>
<event>
4 7 1.0 5000.0 7.905138e-03 7.739137e-02
 2 -1 0 0 101   0  0.000000e+00  0.000000e+00  1.703522e+03  1.703522e+03 0.0 0.0 9.0
21 -1 0 0 103 101  0.000000e+00  0.000000e+00 -3.734122e+03  3.734122e+03 0.0 0.0 9.0
 2  1 1 2 103   0  1.031130e+03 -1.067031e+03  1.183201e+03  1.897827e+03 0.0022 0.0 9.0
22  1 1 2   0   0 -1.031130e+03  1.067031e+03 -3.213800e+03  3.539816e+03 0.0 0.0 9.0
#pdf 2 21 2.620803e-01 5.744802e-01 5000.0 2.975639e-01 3.703111e-02
</event>
<event>
4 7 1.0 5000.0 7.905138e-03 7.739137e-02
21 -1 0 0 103 101  0.000000e+00  0.000000e+00  1.641781e+03  1.641781e+03 0.0 0.0 9.0
 2 -1 0 0 101   0  0.000000e+00  0.000000e+00 -3.761950e+03  3.761950e+03 0.0 0.0 9.0
 2  1 1 2 103   0 -1.412990e+03 -1.071076e+01 -3.282724e+03  3.573924e+03 0.0022 0.0 9.0
22  1 1 2   0   0  1.412990e+03  1.071076e+01  1.162555e+03  1.829806e+03 0.0 0.0 9.0
#pdf 21 2 2.525816e-01 5.787615e-01 5000.0 6.463877e-02 8.957036e-04
</event>
<event>
4 7 1.0 5000.0 7.905138e-03 7.739137e-02
 2 -1 0 0 101   0  0.000000e+00  0.000000e+00  1.900925e+03  1.900925e+03 0.0 0.0 9.0
21 -1 0 0 103 101  0.000000e+00  0.000000e+00 -3.272250e+03  3.272250e+03 0.0 0.0 9.0
22  1 1 2   0   0  2.101550e+03  5.509413e+02  5.846308e+02  2.249854e+03 0.0 0.0 9.0
 2  1 1 2 103   0 -2.101550e+03 -5.509413e+02 -1.955955e+03  2.923322e+03 0.0022 0.0 9.0
#pdf 2 21 2.924501e-01 5.034231e-01 5000.0 2.585282e-01 6.857048e-02
</event>
<event>
4 7 1.0 5000.0 7.905138e-03 7.739137e-02
21 -1 0 0 103 101  0.000000e+00  0.000000e+00  3.730900e+03  3.730900e+03 0.0 0.0 9.0
 2 -1 0 0 101   0  0.000000e+00  0.000000e+00 -1.582557e+03  1.582557e+03 0.0 0.0 9.0
 2  1 1 2 103   0  2.864627e+02 -1.483470e+03  3.154884e+03  3.498004e+03 0.0022 0.0 9.0
22  1 1 2   0   0 -2.864627e+02  1.483470e+03 -1.006541e+03  1.815453e+03 0.0 0.0 9.0
#pdf 21 2 5.739846e-01 2.434703e-01 5000.0 9.639531e-04 7.237019e-02
</event>
<event>
4 7 1.0 5000.0 7.905138e-03 7.739137e-02
21 -1 0 0 103 101  0.000000e+00  0.000000e+00  1.808523e+03  1.808523e+03 0.0 0.0 9.0
 2 -1 0 0 101   0  0.000000e+00  0.000000e+00 -2.547538e+03  2.547538e+03 0.0 0.0 9.0
 2  1 1 2 103   0 -4.053945e+02  1.812474e+03 -1.461382e+03  2.363269e+03 0.0022 0.0 9.0
22  1 1 2   0   0  4.053945e+02 -1.812474e+03  7.223665e+02  1.992792e+03 0.0 0.0 9.0
#pdf 21 2 2.782343e-01 3.919290e-01 5000.0 4.703620e-02 1.159850e-02
</event>
<event>
4 7 1.0 5000.0 7.905138e-03 7.739137e-02
 2 -1 0 0 101   0  0.000000e+00  0.000000e+00  1.785626e+03  1.785626e+03 0.0 0.0 9.0
21 -1 0 0 103 101  0.000000e+00  0.000000e+00 -3.523200e+03  3.523200e+03 0.0 0.0 9.0
 2  1 1 2 103   0 -1.239994e+03 -6.786145e+01 -3.175015e+03  3.409240e+03 0.0022 0.0 9.0
22  1 1 2   0   0  1.239994e+03  6.786145e+01  1.437441e+03  1.899586e+03 0.0 0.0 9.0
#pdf 2 21 2.747116e-01 5.420308e-01 5000.0 2.810713e-01 4.971947e-02
</event>
<event>
4 7 1.0 5000.0 7.905138e-03 7.739137e-02
 2 -1 0 0 101   0  0.000000e+00  0.000000e+00  3.074708e+03  3.074708e+03 0.0 0.0 9.0
21 -1 0 0 103 101  0.000000e+00  0.000000e+00 -1.935120e+03  1.935120e+03 0.0 0.0 9.0
22  1 1 2   0   0 -2.157547e+03 -9.587910e+02  1.199189e+03  2.648083e+03 0.0 0.0 9.0
 2  1 1 2 103   0  2.157547e+03  9.587910e+02 -5.960048e+01  2.361745e+03 0.0022 0.0 9.0
#pdf 2 21 4.730320e-01 2.977107e-01 5000.0 8.659347e-02 2.520063e-01
</event>
<event>
4 7 1.0 5000.0 7.905138e-03 7.739137e-02
 2 -1 0 0 101   0  0.000000e+00  0.000000e+00  2.148231e+03  2.148231e+03 0.0 0.0 9.0
21 -1 0 0 103 101  0.000000e+00  0.000000e+00 -2.867071e+03  2.867071e+03 0.0 0.0 9.0
22  1 1 2   0   0  6.727081e+01  1.655434e+03 -2.226437e+03  2.775249e+03 0.0 0.0 9.0
 2  1 1 2 103   0 -6.727081e+01 -1.655434e+03  1.507596e+03  2.240052e+03 0.0022 0.0 9.0
#pdf 2 21 3.304970e-01 4.410879e-01 5000.0 2.131597e-01 1.088164e-01
</event>
<event>
4 7 1.0 5000.0 7.905138e-03 7.739137e-02
 2 -1 0 0 101   0  0.000000e+00  0.000000e+00  1.831589e+03  1.831589e+03 0.0 0.0 9.0
21 -1 0 0 103 101  0.000000e+00  0.000000e+00 -3.432607e+03  3.432607e+03 0.0 0.0 9.0
 2  1 1 2 103   0 -1.382678e+03 -6.183448e+02 -2.898118e+03  3.270051e+03 0.0022 0.0 9.0
22  1 1 2   0   0  1.382678e+03  6.183448e+02  1.297099e+03  1.994145e+03 0.0 0.0 9.0
#pdf 2 21 2.817828e-01 5.280935e-01 5000.0 2.719994e-01 5.603727e-02
</event>
<event>
4 7 1.0 5000.0 7.905138e-03 7.739137e-02
 2 -1 0 0 101   0  0.000000e+00  0.000000e+00  2.973476e+03  2.973476e+03 0.0 0.0 9.0
21 -1 0 0 103 101  0.000000e+00  0.000000e+00 -2.105690e+03  2.105690e+03 0.0 0.0 9.0
 2  1 1 2 103   0 -2.126698e+03 -6.404286e+01 -9.026763e+02  2.311227e+03 0.0022 0.0 9.0
22  1 1 2   0   0  2.126698e+03  6.404286e+01  1.770463e+03  2.767939e+03 0.0 0.0 9.0
#pdf 2 21 4.574579e-01 3.239522e-01 5000.0 9.699031e-02 2.206573e-01
</event>
<event>
4 7 1.0 5000.0 7.905138e-03 7.739137e-02
21 -1 0 0 103 101  0.000000e+00  0.000000e+00  2.716381e+03  2.716381e+03 0.0 0.0 9.0
 2 -1 0 0 101   0  0.000000e+00  0.000000e+00 -2.270660e+03  2.270660e+03 0.0 0.0 9.0
 2  1 1 2 103   0  1.242864e+03  2.008812e+03  9.927155e+02  2.562327e+03 0.0022 0.0 9.0
22  1 1 2   0   0 -1.242864e+03 -2.008812e+03 -5.469944e+02  2.424714e+03 0.0 0.0 9.0
#pdf 21 2 4.179048e-01 3.493323e-01 5000.0 8.350292e-03 1.968090e-02
</event>
<event>
4 7 1.0 5000.0 7.905138e-03 7.739137e-02
 2 -1 0 0 101   0  0.000000e+00  0.000000e+00  3.321990e+03  3.321990e+03 0.0 0.0 9.0
21 -1 0 0 103 101  0.000000e+00  0.000000e+00 -1.864557e+03  1.864557e+03 0.0 0.0 9.0
 2  1 1 2 103   0  1.843071e+03 -1.013896e+03 -6.572177e+02  2.203822e+03 0.0022 0.0 9.0
22  1 1 2   0   0 -1.843071e+03  1.013896e+03  2.114650e+03  2.982724e+03 0.0 0.0 9.0
#pdf 2 21 5.110754e-01 2.868549e-01 5000.0 6.448745e-02 2.655626e-01
</event>
<event>
4 7 1.0 5000.0 7.905138e-03 7.739137e-02
 2 -1 0 0 101   0  0.000000e+00  0.000000e+00  3.216055e+03  3.216055e+03 0.0 0.0 9.0
21 -1 0 0 103 101  0.000000e+00  0.000000e+00 -1.782600e+03  1.782600e+03 0.0 0.0 9.0
22  1 1 2   0   0 -1.711007e+03  2.807436e+02 -1.006900e+03  2.005046e+03 0.0 0.0 9.0
 2  1 1 2 103   0  1.711007e+03 -2.807436e+02  2.440355e+03  2.993609e+03 0.0022 0.0 9.0
#pdf 2 21 4.947776e-01 2.742462e-01 5000.0 7.339886e-02 2.816732e-01
</event>
<event>
4 7 1.0 5000.0 7.905138e-03 7.739137e-02
21 -1 0 0 103 101  0.000000e+00  0.000000e+00  4.498763e+03  4.498763e+03 0.0 0.0 9.0
 2 -1 0 0 101   0  0.000000e+00  0.000000e+00 -1.186457e+03  1.186457e+03 0.0 0.0 9.0
22  1 1 2   0   0  6.511513e+01  1.123571e+03  4.138669e+03  4.288966e+03 0.0 0.0 9.0
 2  1 1 2 103   0 -6.511513e+01 -1.123571e+03 -8.263627e+02  1.396254e+03 0.0022 0.0 9.0
#pdf 21 2 6.921174e-01 1.825319e-01 5000.0 1.266347e-04 1.586362e-01
</event>
<event>
4 7 1.0 5000.0 7.905138e-03 7.739137e-02
 2 -1 0 0 101   0  0.000000e+00  0.000000e+00  3.575184e+03  3.575184e+03 0.0 0.0 9.0
21 -1 0 0 103 101  0.000000e+00  0.000000e+00 -1.666759e+03  1.666759e+03 0.0 0.0 9.0
22  1 1 2   0   0 -1.139312e+03  7.613934e+01 -1.362345e+03  1.777586e+03 0.0 0.0 9.0
 2  1 1 2 103   0  1.139312e+03 -7.613934e+01  3.270770e+03  3.464357e+03 0.0022 0.0 9.0
#pdf 2 21 5.500284e-01 2.564244e-01 5000.0 4.633299e-02 3.050287e-01
</event>
<event>
4 7 1.0 5000.0 7.905138e-03 7.739137e-02
 2 -1 0 0 101   0  0.000000e+00  0.000000e+00  1.586479e+03  1.586479e+03 0.0 0.0 9.0
21 -1 0 0 103 101  0.000000e+00  0.000000e+00 -3.987439e+03  3.987439e+03 0.0 0.0 9.0
22  1 1 2   0   0 -1.043774e+03 -2.183988e+03 -1.957479e+03  3.113035e+03 0.0 0.0 9.0
 2  1 1 2 103   0  1.043774e+03  2.183988e+03 -4.434811e+02  2.460882e+03 0.0022 0.0 9.0
#pdf 2 21 2.440737e-01 6.134521e-01 5000.0 3.215860e-01 2.513528e-02
</event>
<event>
4 7 1.0 5000.0 7.905138e-03 7.739137e-02
 2 -1 0 0 101   0  0.000000e+00  0.000000e+00  2.542036e+03  2.542036e+03 0.0 0.0 9.0
21 -1 0 0 103 101  0.000000e+00  0.000000e+00 -2.101895e+03  2.101895e+03 0.0 0.0 9.0
 2  1 1 2 103   0 -9.555407e+02 -1.993864e+02 -1.884703e+03  2.122479e+03 0.0022 0.0 9.0
22  1 1 2   0   0  9.555407e+02  1.993864e+02  2.324845e+03  2.521451e+03 0.0 0.0 9.0
#pdf 2 21 3.910825e-01 3.233684e-01 5000.0 1.506936e-01 2.213327e-01
</event>
<event>
4 7 1.0 5000.0 7.905138e-03 7.739137e-02
 2 -1 0 0 101   0  0.000000e+00  0.000000e+00  3.729478e+03  3.729478e+03 0.0 0.0 9.0
21 -1 0 0 103 101  0.000000e+00  0.000000e+00 -1.711203e+03  1.711203e+03 0.0 0.0 9.0
 2  1 1 2 103   0 -1.632749e+03  1.160307e+03  2.666801e+03  3.335267e+03 0.0022 0.0 9.0
22  1 1 2   0   0  1.632749e+03 -1.160307e+03 -6.485259e+02  2.105414e+03 0.0 0.0 9.0
#pdf 2 21 5.737658e-01 2.632620e-01 5000.0 3.728186e-02 2.960100e-01
</event>
<event>
4 7 1.0 5000.0 7.905138e-03 7.739137e-02
21 -1 0 0 103 101  0.000000e+00  0.000000e+00  1.888239e+03  1.888239e+03 0.0 0.0 9.0
 2 -1 0 0 101   0  0.000000e+00  0.000000e+00 -3.340137e+03  3.340137e+03 0.0 0.0 9.0
22  1 1 2   0   0 -1.111103e+02 -2.449298e+03 -1.291870e+03  2.771342e+03 0.0 0.0 9.0
 2  1 1 2 103   0  1.111103e+02  2.449298e+03 -1.600291e+02  2.457034e+03 0.0022 0.0 9.0
#pdf 21 2 2.904983e-01 5.138673e-01 5000.0 4.049420e-02 2.324471e-03
</event>
<event>
4 7 1.0 5000.0 7.905138e-03 7.739137e-02
21 -1 0 0 103 101  0.000000e+00  0.000000e+00  3.035868e+03  3.035868e+03 0.0 0.0 9.0
 2 -1 0 0 101   0  0.000000e+00  0.000000e+00 -2.020318e+03  2.020318e+03 0.0 0.0 9.0
 2  1 1 2 103   0  1.484316e+02  1.066848e+03  2.784239e+03  2.985328e+03 0.0022 0.0 9.0
22  1 1 2   0   0 -1.484316e+02 -1.066848e+03 -1.768688e+03  2.070858e+03 0.0 0.0 9.0
#pdf 21 2 4.670566e-01 3.108181e-01 5000.0 4.403837e-03 3.157485e-02
</event>
<event>
4 7 1.0 5000.0 7.905138e-03 7.739137e-02
 2 -1 0 0 101   0  0.000000e+00  0.000000e+00  1.572659e+03  1.572659e+03 0.0 0.0 9.0
21 -1 0 0 103 101  0.000000e+00  0.000000e+00 -3.580956e+03  3.580956e+03 0.0 0.0 9.0
22  1 1 2   0   0  9.822611e+02 -2.157080e+03 -1.131662e+03  2.626498e+03 0.0 0.0 9.0
 2  1 1 2 103   0 -9.822611e+02  2.157080e+03 -8.766353e+02  2.527117e+03 0.0022 0.0 9.0
#pdf 2 21 2.419476e-01 5.509164e-01 5000.0 3.244373e-01 4.596677e-02
</event>
<event>
4 7 1.0 5000.0 7.905138e-03 7.739137e-02
 2 -1 0 0 101   0  0.000000e+00  0.000000e+00  1.714152e+03  1.714152e+03 0.0 0.0 9.0
21 -1 0 0 103 101  0.000000e+00  0.000000e+00 -4.045492e+03  4.045492e+03 0.0 0.0 9.0
22  1 1 2   0   0 -1.186726e+03 -1.479250e+03  8.323706e+02  2.071072e+03 0.0 0.0 9.0
 2  1 1 2 103   0  1.186726e+03  1.479250e+03 -3.163711e+03  3.688572e+03 0.0022 0.0 9.0
#pdf 2 21 2.637157e-01 6.223834e-01 5000.0 2.954138e-01 2.286295e-02
</event>
<event>
4 7 1.0 5000.0 7.905138e-03 7.739137e-02
 2 -1 0 0 101   0  0.000000e+00  0.000000e+00  1.646439e+03  1.646439e+03 0.0 0.0 9.0
21 -1 0 0 103 101  0.000000e+00  0.000000e+00 -3.790882e+03  3.790882e+03 0.0 0.0 9.0
 2  1 1 2 103   0 -4.766194e+02  2.202820e+03  1.007612e+02  2.256044e+03 0.0022 0.0 9.0
22  1 1 2   0   0  4.766194e+02 -2.202820e+03 -2.245205e+03  3.181277e+03 0.0 0.0 9.0
#pdf 2 21 2.532983e-01 5.832127e-01 5000.0 3.091838e-01 3.406595e-02
</event>
<event>
4 7 1.0 5000.0 7.905138e-03 7.739137e-02
 2 -1 0 0 101   0  0.000000e+00  0.000000e+00  1.525647e+03  1.525647e+03 0.0 0.0 9.0
21 -1 0 0 103 101  0.000000e+00  0.000000e+00 -3.818817e+03  3.818817e+03 0.0 0.0 9.0
22  1 1 2   0   0 -9.827223e+02  9.081269e+02 -3.370631e+03  3.626512e+03 0.0 0.0 9.0
 2  1 1 2 103   0  9.827223e+02 -9.081269e+02  1.077460e+03  1.717952e+03 0.0022 0.0 9.0
#pdf 2 21 2.347148e-01 5.875103e-01 5000.0 3.342675e-01 3.267253e-02
</event>
<event>
4 7 1.0 5000.0 7.905138e-03 7.739137e-02
21 -1 0 0 103 101  0.000000e+00  0.000000e+00  2.261187e+03  2.261187e+03 0.0 0.0 9.0
 2 -1 0 0 101   0  0.000000e+00  0.000000e+00 -2.811471e+03  2.811471e+03 0.0 0.0 9.0
22  1 1 2   0   0  1.084261e+03 -4.577234e+02  1.967923e+03  2.293001e+03 0.0 0.0 9.0
 2  1 1 2 103   0 -1.084261e+03  4.577234e+02 -2.518206e+03  2.779657e+03 0.0022 0.0 9.0
#pdf 21 2 3.478750e-01 4.325339e-01 5000.0 2.003643e-02 6.923186e-03
</event>
<event>
4 7 1.0 5000.0 7.905138e-03 7.739137e-02
 2 -1 0 0 101   0  0.000000e+00  0.000000e+00  1.442489e+03  1.442489e+03 0.0 0.0 9.0
21 -1 0 0 103 101  0.000000e+00  0.000000e+00 -4.348738e+03  4.348738e+03 0.0 0.0 9.0
22  1 1 2   0   0  2.606703e+02  1.928501e+03  3.697138e+02  1.980846e+03 0.0 0.0 9.0
 2  1 1 2 103   0 -2.606703e+02 -1.928501e+03 -3.275963e+03  3.810380e+03 0.0022 0.0 9.0
#pdf 2 21 2.219213e-01 6.690366e-01 5000.0 3.517807e-01 1.336765e-02
</event>
<event>
4 7 1.0 5000.0 7.905138e-03 7.739137e-02
21 -1 0 0 103 101  0.000000e+00  0.000000e+00  1.724240e+03  1.724240e+03 0.0 0.0 9.0
 2 -1 0 0 101   0  0.000000e+00  0.000000e+00 -3.475358e+03  3.475358e+03 0.0 0.0 9.0
 2  1 1 2 103   0  1.020026e+03 -9.032835e+02 -3.035442e+03  3.327204e+03 0.0022 0.0 9.0
22  1 1 2   0   0 -1.020026e+03  9.032835e+02  1.284324e+03  1.872394e+03 0.0 0.0 9.0
#pdf 21 2 2.652676e-01 5.346705e-01 5000.0 5.517240e-02 1.729336e-03
</event>
<event>
4 7 1.0 5000.0 7.905138e-03 7.739137e-02
 2 -1 0 0 101   0  0.000000e+00  0.000000e+00  2.787560e+03  2.787560e+03 0.0 0.0 9.0
21 -1 0 0 103 101  0.000000e+00  0.000000e+00 -2.210591e+03  2.210591e+03 0.0 0.0 9.0
 2  1 1 2 103   0  4.808866e+02  2.369489e+03 -2.778180e+02  2.433703e+03 0.0022 0.0 9.0
22  1 1 2   0   0 -4.808866e+02 -2.369489e+03  8.547867e+02  2.564447e+03 0.0 0.0 9.0
#pdf 2 21 4.288553e-01 3.400909e-01 5000.0 1.182356e-01 2.024338e-01
</event>
<event>
4 7 1.0 5000.0 7.905138e-03 7.739137e-02
 2 -1 0 0 101   0  0.000000e+00  0.000000e+00  3.184371e+03  3.184371e+03 0.0 0.0 9.0
21 -1 0 0 103 101  0.000000e+00  0.000000e+00 -1.932334e+03  1.932334e+03 0.0 0.0 9.0
22  1 1 2   0   0 -4.865152e+01 -1.436535e+03  2.711105e+03  3.068565e+03 0.0 0.0 9.0
 2  1 1 2 103   0  4.865152e+01  1.436535e+03 -1.459067e+03  2.048140e+03 0.0022 0.0 9.0
#pdf 2 21 4.899033e-01 2.972821e-01 5000.0 7.622468e-02 2.525337e-01
</event>
<event>
4 7 1.0 5000.0 7.905138e-03 7.739137e-02
 2 -1 0 0 101   0  0.000000e+00  0.000000e+00  3.540605e+03  3.540605e+03 0.0 0.0 9.0
21 -1 0 0 103 101  0.000000e+00  0.000000e+00 -1.774264e+03  1.774264e+03 0.0 0.0 9.0
22  1 1 2   0   0  1.924945e+03  1.524713e+03  1.415215e+03  2.834254e+03 0.0 0.0 9.0
 2  1 1 2 103   0 -1.924945e+03 -1.524713e+03  3.511253e+02  2.480615e+03 0.0022 0.0 9.0
#pdf 2 21 5.447084e-01 2.729637e-01 5000.0 4.857131e-02 2.833343e-01
</event>
<event>
4 7 1.0 5000.0 7.905138e-03 7.739137e-02
 2 -1 0 0 101   0  0.000000e+00  0.000000e+00  2.902844e+03  2.902844e+03 0.0 0.0 9.0
21 -1 0 0 103 101  0.000000e+00  0.000000e+00 -2.051404e+03  2.051404e+03 0.0 0.0 9.0
 2  1 1 2 103   0 -1.719882e+03  4.508826e+02 -1.270935e+03  2.185535e+03 0.0022 0.0 9.0
22  1 1 2   0   0  1.719882e+03 -4.508826e+02  2.122376e+03  2.768712e+03 0.0 0.0 9.0
#pdf 2 21 4.465914e-01 3.156006e-01 5000.0 1.047220e-01 2.304090e-01
</event>
<event>
4 7 1.0 5000.0 7.905138e-03 7.739137e-02
 2 -1 0 0 101   0  0.000000e+00  0.000000e+00  4.286998e+03  4.286998e+03 0.0 0.0 9.0
21 -1 0 0 103 101  0.000000e+00  0.000000e+00 -1.366640e+03  1.366640e+03 0.0 0.0 9.0
22  1 1 2   0   0  1.780632e+03  1.300817e+03  2.625716e+03  3.428871e+03 0.0 0.0 9.0
 2  1 1 2 103   0 -1.780632e+03 -1.300817e+03  2.946417e+02  2.224767e+03 0.0022 0.0 9.0
#pdf 2 21 6.595381e-01 2.102523e-01 5000.0 1.501145e-02 3.678573e-01
</event>
<event>
4 7 1.0 5000.0 7.905138e-03 7.739137e-02
 2 -1 0 0 101   0  0.000000e+00  0.000000e+00  1.485236e+03  1.485236e+03 0.0 0.0 9.0
21 -1 0 0 103 101  0.000000e+00  0.000000e+00 -4.333489e+03  4.333489e+03 0.0 0.0 9.0
 2  1 1 2 103   0 -3.925840e+02  2.215876e+03 -8.086135e+01  2.251837e+03 0.0022 0.0 9.0
22  1 1 2   0   0  3.925840e+02 -2.215876e+03 -2.767392e+03  3.566888e+03 0.0 0.0 9.0
#pdf 2 21 2.284978e-01 6.666907e-01 5000.0 3.427873e-01 1.375508e-02
</event>
<event>
4 7 1.0 5000.0 7.905138e-03 7.739137e-02
 2 -1 0 0 101   0  0.000000e+00  0.000000e+00  3.501518e+03  3.501518e+03 0.0 0.0 9.0
21 -1 0 0 103 101  0.000000e+00  0.000000e+00 -1.775439e+03  1.775439e+03 0.0 0.0 9.0
 2  1 1 2 103   0 -2.081995e+03  5.894776e+02 -4.478392e+02  2.209693e+03 0.0022 0.0 9.0
22  1 1 2   0   0  2.081995e+03 -5.894776e+02  2.173918e+03  3.067263e+03 0.0 0.0 9.0
#pdf 2 21 5.386950e-01 2.731445e-01 5000.0 5.117747e-02 2.831000e-01
</event>
<event>
4 7 1.0 5000.0 7.905138e-03 7.739137e-02
 2 -1 0 0 101   0  0.000000e+00  0.000000e+00  3.707431e+03  3.707431e+03 0.0 0.0 9.0
21 -1 0 0 103 101  0.000000e+00  0.000000e+00 -1.648493e+03  1.648493e+03 0.0 0.0 9.0
22  1 1 2   0   0  1.423207e+03  9.086019e+02  2.985488e+03  3.429900e+03 0.0 0.0 9.0
 2  1 1 2 103   0 -1.423207e+03 -9.086019e+02 -9.265492e+02  1.926024e+03 0.0022 0.0 9.0
#pdf 2 21 5.703741e-01 2.536142e-01 5000.0 3.849048e-02 3.087627e-01
</event>
<event>
4 7 1.0 5000.0 7.905138e-03 7.739137e-02
 2 -1 0 0 101   0  0.000000e+00  0.000000e+00  1.529205e+03  1.529205e+03 0.0 0.0 9.0
21 -1 0 0 103 101  0.000000e+00  0.000000e+00 -3.004719e+03  3.004719e+03 0.0 0.0 9.0
 2  1 1 2 103   0 -3.697482e+02  1.548795e+03  7.799043e+02  1.773057e+03 0.0022 0.0 9.0
22  1 1 2   0   0  3.697482e+02 -1.548795e+03 -2.255418e+03  2.760867e+03 0.0 0.0 9.0
#pdf 2 21 2.352623e-01 4.622644e-01 5000.0 3.335185e-01 9.369064e-02
</event>
<event>
4 7 1.0 5000.0 7.905138e-03 7.739137e-02
 2 -1 0 0 101   0  0.000000e+00  0.000000e+00  2.294891e+03  2.294891e+03 0.0 0.0 9.0
21 -1 0 0 103 101  0.000000e+00  0.000000e+00 -2.619505e+03  2.619505e+03 0.0 0.0 9.0
22  1 1 2   0   0  1.593577e+03  1.066253e+03 -1.693752e+03  2.558355e+03 0.0 0.0 9.0
 2  1 1 2 103   0 -1.593577e+03 -1.066253e+03  1.369139e+03  2.356040e+03 0.0022 0.0 9.0
#pdf 2 21 3.530602e-01 4.030007e-01 5000.0 1.884117e-01 1.399058e-01
</event>
<event>
4 7 1.0 5000.0 7.905138e-03 7.739137e-02
21 -1 0 0 103 101  0.000000e+00  0.000000e+00  1.798489e+03  1.798489e+03 0.0 0.0 9.0
 2 -1 0 0 101   0  0.000000e+00  0.000000e+00 -3.387049e+03  3.387049e+03 0.0 0.0 9.0
22  1 1 2   0   0  1.634752e+01  1.276432e+03  1.424760e+03  1.912979e+03 0.0 0.0 9.0
 2  1 1 2 103   0 -1.634752e+01 -1.276432e+03 -3.013320e+03  3.272559e+03 0.0022 0.0 9.0
#pdf 21 2 2.766906e-01 5.210844e-01 5000.0 4.793753e-02 2.099213e-03
</event>
<event>
4 7 1.0 5000.0 7.905138e-03 7.739137e-02
21 -1 0 0 103 101  0.000000e+00  0.000000e+00  1.439818e+03  1.439818e+03 0.0 0.0 9.0
 2 -1 0 0 101   0  0.000000e+00  0.000000e+00 -4.131231e+03  4.131231e+03 0.0 0.0 9.0
 2  1 1 2 103   0 -8.067477e+02 -1.265364e+03 -3.541508e+03  3.846332e+03 0.0022 0.0 9.0
22  1 1 2   0   0  8.067477e+02  1.265364e+03  8.500950e+02  1.724717e+03 0.0 0.0 9.0
#pdf 21 2 2.215105e-01 6.355740e-01 5000.0 9.541225e-02 3.561349e-04
</event>
<event>
4 7 1.0 5000.0 7.905138e-03 7.739137e-02
21 -1 0 0 103 101  0.000000e+00  0.000000e+00  2.502555e+03  2.502555e+03 0.0 0.0 9.0
 2 -1 0 0 101   0  0.000000e+00  0.000000e+00 -2.353322e+03  2.353322e+03 0.0 0.0 9.0
22  1 1 2   0   0 -8.675994e+02 -1.669875e+03  1.607694e+03  2.475054e+03 0.0 0.0 9.0
 2  1 1 2 103   0  8.675994e+02  1.669875e+03 -1.458461e+03  2.380824e+03 0.0022 0.0 9.0
#pdf 21 2 3.850085e-01 3.620496e-01 5000.0 1.265544e-02 1.682102e-02
</event>
<event>
4 7 1.0 5000.0 7.905138e-03 7.739137e-02
21 -1 0 0 103 101  0.000000e+00  0.000000e+00  2.871454e+03  2.871454e+03 0.0 0.0 9.0
 2 -1 0 0 101   0  0.000000e+00  0.000000e+00 -2.173544e+03  2.173544e+03 0.0 0.0 9.0
22  1 1 2   0   0  3.747556e+02  1.032395e+03  2.614608e+03  2.835922e+03 0.0 0.0 9.0
 2  1 1 2 103   0 -3.747556e+02 -1.032395e+03 -1.916698e+03  2.209075e+03 0.0022 0.0 9.0
#pdf 21 2 4.417621e-01 3.343913e-01 5000.0 6.147316e-03 2.363785e-02
</event>
<event>
4 7 1.0 5000.0 7.905138e-03 7.739137e-02
 2 -1 0 0 101   0  0.000000e+00  0.000000e+00  2.722982e+03  2.722982e+03 0.0 0.0 9.0
21 -1 0 0 103 101  0.000000e+00  0.000000e+00 -2.320578e+03  2.320578e+03 0.0 0.0 9.0
22  1 1 2   0   0  1.379984e+03 -6.667001e+02 -1.797667e+03  2.362298e+03 0.0 0.0 9.0
 2  1 1 2 103   0 -1.379984e+03  6.667001e+02  2.200072e+03  2.681261e+03 0.0022 0.0 9.0
#pdf 2 21 4.189203e-01 3.570119e-01 5000.0 1.262816e-01 1.842556e-01
</event>
<event>
4 7 1.0 5000.0 7.905138e-03 7.739137e-02
 2 -1 0 0 101   0  0.000000e+00  0.000000e+00  2.354621e+03  2.354621e+03 0.0 0.0 9.0
21 -1 0 0 103 101  0.000000e+00  0.000000e+00 -2.635103e+03  2.635103e+03 0.0 0.0 9.0
 2  1 1 2 103   0  7.060066e+02 -6.153844e+02 -2.452039e+03  2.624812e+03 0.0022 0.0 9.0
22  1 1 2   0   0 -7.060066e+02  6.153844e+02  2.171558e+03  2.364912e+03 0.0 0.0 9.0
#pdf 2 21 3.622494e-01 4.054004e-01 5000.0 1.788294e-01 1.377939e-01
</event>
<event>
4 7 1.0 5000.0 7.905138e-03 7.739137e-02
 2 -1 0 0 101   0  0.000000e+00  0.000000e+00  2.654527e+03  2.654527e+03 0.0 0.0 9.0
21 -1 0 0 103 101  0.000000e+00  0.000000e+00 -1.640100e+03  1.640100e+03 0.0 0.0 9.0
22  1 1 2   0   0  1.932278e+02 -2.077468e+03  5.297798e+02  2.152644e+03 0.0 0.0 9.0
 2  1 1 2 103   0 -1.932278e+02  2.077468e+03  4.846467e+02  2.141983e+03 0.0022 0.0 9.0
#pdf 2 21 4.083888e-01 2.523231e-01 5000.0 1.351942e-01 3.104857e-01
</event>
<event>
4 7 1.0 5000.0 7.905138e-03 7.739137e-02
 2 -1 0 0 101   0  0.000000e+00  0.000000e+00  3.183094e+03  3.183094e+03 0.0 0.0 9.0
21 -1 0 0 103 101  0.000000e+00  0.000000e+00 -1.992270e+03  1.992270e+03 0.0 0.0 9.0
 2  1 1 2 103   0  1.605820e+03  1.788372e+02 -1.389409e+03  2.130985e+03 0.0022 0.0 9.0
22  1 1 2   0   0 -1.605820e+03 -1.788372e+02  2.580233e+03  3.044379e+03 0.0 0.0 9.0
#pdf 2 21 4.897067e-01 3.065031e-01 5000.0 7.634020e-02 2.412708e-01
</event>
<event>
4 7 1.0 5000.0 7.905138e-03 7.739137e-02
 2 -1 0 0 101   0  0.000000e+00  0.000000e+00  1.519479e+03  1.519479e+03 0.0 0.0 9.0
21 -1 0 0 103 101  0.000000e+00  0.000000e+00 -4.159403e+03  4.159403e+03 0.0 0.0 9.0
22  1 1 2   0   0 -7.090795e+02  4.703236e+02 -3.991823e+03  4.081501e+03 0.0 0.0 9.0
 2  1 1 2 103   0  7.090795e+02 -4.703236e+02  1.351898e+03  1.597381e+03 0.0022 0.0 9.0
#pdf 2 21 2.337660e-01 6.399082e-01 5000.0 3.355667e-01 1.884946e-02
</event>
<event>
4 7 1.0 5000.0 7.905138e-03 7.739137e-02
21 -1 0 0 103 101  0.000000e+00  0.000000e+00  2.320418e+03  2.320418e+03 0.0 0.0 9.0
 2 -1 0 0 101   0  0.000000e+00  0.000000e+00 -2.387159e+03  2.387159e+03 0.0 0.0 9.0
22  1 1 2   0   0  1.583887e+03 -9.128089e+02  1.449103e+03  2.332771e+03 0.0 0.0 9.0
 2  1 1 2 103   0 -1.583887e+03  9.128089e+02 -1.515845e+03  2.374806e+03 0.0022 0.0 9.0
#pdf 21 2 3.569873e-01 3.672552e-01 5000.0 1.789824e-02 1.576974e-02
</event>
<event>
4 7 1.0 5000.0 7.905138e-03 7.739137e-02
 2 -1 0 0 101   0  0.000000e+00  0.000000e+00  3.179122e+03  3.179122e+03 0.0 0.0 9.0
21 -1 0 0 103 101  0.000000e+00  0.000000e+00 -2.005551e+03  2.005551e+03 0.0 0.0 9.0
22  1 1 2   0   0 -7.860918e+02  1.521267e+03  2.491954e+03  3.023579e+03 0.0 0.0 9.0
 2  1 1 2 103   0  7.860918e+02 -1.521267e+03 -1.318383e+03  2.161094e+03 0.0022 0.0 9.0
#pdf 2 21 4.890957e-01 3.085463e-01 5000.0 7.670011e-02 2.388080e-01
</event>
<event>
4 7 1.0 5000.0 7.905138e-03 7.739137e-02
21 -1 0 0 103 101  0.000000e+00  0.000000e+00  3.008213e+03  3.008213e+03 0.0 0.0 9.0
 2 -1 0 0 101   0  0.000000e+00  0.000000e+00 -2.144654e+03  2.144654e+03 0.0 0.0 9.0
22  1 1 2   0   0 -5.412193e+02 -1.726031e+03  2.240468e+03  2.879548e+03 0.0 0.0 9.0
 2  1 1 2 103   0  5.412193e+02  1.726031e+03 -1.376909e+03  2.273319e+03 0.0022 0.0 9.0
#pdf 21 2 4.628020e-01 3.299467e-01 5000.0 4.658839e-03 2.496253e-02
</event>
<event>
4 7 1.0 5000.0 7.905138e-03 7.739137e-02
21 -1 0 0 103 101  0.000000e+00  0.000000e+00  1.835335e+03  1.835335e+03 0.0 0.0 9.0
 2 -1 0 0 101   0  0.000000e+00  0.000000e+00 -3.059275e+03  3.059275e+03 0.0 0.0 9.0
 2  1 1 2 103   0 -1.948521e+02  1.591740e+03 -2.413684e+03  2.897840e+03 0.0022 0.0 9.0
22  1 1 2   0   0  1.948521e+02 -1.591740e+03  1.189744e+03  1.996771e+03 0.0 0.0 9.0
#pdf 21 2 2.823593e-01 4.706577e-01 5000.0 4.470528e-02 4.197809e-03
</event>
<event>
4 7 1.0 5000.0 7.905138e-03 7.739137e-02
21 -1 0 0 103 101  0.000000e+00  0.000000e+00  2.458945e+03  2.458945e+03 0.0 0.0 9.0
 2 -1 0 0 101   0  0.000000e+00  0.000000e+00 -2.526466e+03  2.526466e+03 0.0 0.0 9.0
22  1 1 2   0   0  9.285454e+02 -1.485542e+03  1.739368e+03  2.468691e+03 0.0 0.0 9.0
 2  1 1 2 103   0 -9.285454e+02  1.485542e+03 -1.806889e+03  2.516720e+03 0.0022 0.0 9.0
#pdf 21 2 3.782992e-01 3.886870e-01 5000.0 1.376370e-02 1.208181e-02
</event>
<event>
4 7 1.0 5000.0 7.905138e-03 7.739137e-02
21 -1 0 0 103 101  0.000000e+00  0.000000e+00  2.100231e+03  2.100231e+03 0.0 0.0 9.0
 2 -1 0 0 101   0  0.000000e+00  0.000000e+00 -3.032353e+03  3.032353e+03 0.0 0.0 9.0
22  1 1 2   0   0 -1.461801e+03  1.193959e+03 -2.169573e+03  2.875665e+03 0.0 0.0 9.0
 2  1 1 2 103   0  1.461801e+03 -1.193959e+03  1.237451e+03  2.256919e+03 0.0022 0.0 9.0
#pdf 21 2 3.231124e-01 4.665159e-01 5000.0 2.713897e-02 4.435538e-03
</event>
<event>
4 7 1.0 5000.0 7.905138e-03 7.739137e-02
 2 -1 0 0 101   0  0.000000e+00  0.000000e+00  4.516732e+03  4.516732e+03 0.0 0.0 9.0
21 -1 0 0 103 101  0.000000e+00  0.000000e+00 -1.394105e+03  1.394105e+03 0.0 0.0 9.0
22  1 1 2   0   0 -1.726305e+03 -9.456185e+02 -2.717982e+02  1.987007e+03 0.0 0.0 9.0
 2  1 1 2 103   0  1.726305e+03  9.456185e+02  3.394425e+03  3.923831e+03 0.0022 0.0 9.0
#pdf 2 21 6.948819e-01 2.144777e-01 5000.0 9.593978e-03 3.620040e-01
</event>
<event>
4 7 1.0 5000.0 7.905138e-03 7.739137e-02
 2 -1 0 0 101   0  0.000000e+00  0.000000e+00  2.359187e+03  2.359187e+03 0.0 0.0 9.0
21 -1 0 0 103 101  0.000000e+00  0.000000e+00 -2.722209e+03  2.722209e+03 0.0 0.0 9.0
22  1 1 2   0   0  2.377954e+03  3.074386e+01  6.962822e+02  2.477987e+03 0.0 0.0 9.0
 2  1 1 2 103   0 -2.377954e+03 -3.074386e+01 -1.059305e+03  2.603409e+03 0.0022 0.0 9.0
#pdf 2 21 3.629518e-01 4.188014e-01 5000.0 1.781087e-01 1.263801e-01
</event>
<event>
4 7 1.0 5000.0 7.905138e-03 7.739137e-02
 2 -1 0 0 101   0  0.000000e+00  0.000000e+00  3.237600e+03  3.237600e+03 0.0 0.0 9.0
21 -1 0 0 103 101  0.000000e+00  0.000000e+00 -2.026477e+03  2.026477e+03 0.0 0.0 9.0
 2  1 1 2 103   0 -8.171864e+02 -3.421642e+02  3.075154e+03  3.200225e+03 0.0022 0.0 9.0
22  1 1 2   0   0  8.171864e+02  3.421642e+02 -1.864031e+03  2.063851e+03 0.0 0.0 9.0
#pdf 2 21 4.980923e-01 3.117656e-01 5000.0 7.152008e-02 2.349553e-01
</event>
<event>
4 7 1.0 5000.0 7.905138e-03 7.739137e-02
21 -1 0 0 103 101  0.000000e+00  0.000000e+00  1.838507e+03  1.838507e+03 0.0 0.0 9.0
 2 -1 0 0 101   0  0.000000e+00  0.000000e+00 -3.419212e+03  3.419212e+03 0.0 0.0 9.0
22  1 1 2   0   0 -1.901829e+03  1.600282e+03 -1.135545e+03  2.732640e+03 0.0 0.0 9.0
 2  1 1 2 103   0  1.901829e+03 -1.600282e+03 -4.451605e+02  2.525079e+03 0.0022 0.0 9.0
#pdf 21 2 2.828472e-01 5.260326e-01 5000.0 4.443811e-02 1.957443e-03
</event>
<event>
4 7 1.0 5000.0 7.905138e-03 7.739137e-02
21 -1 0 0 103 101  0.000000e+00  0.000000e+00  1.555477e+03  1.555477e+03 0.0 0.0 9.0
 2 -1 0 0 101   0  0.000000e+00  0.000000e+00 -3.994925e+03  3.994925e+03 0.0 0.0 9.0
 2  1 1 2 103   0  1.844802e+03  2.991414e+02 -3.056225e+03  3.582358e+03 0.0022 0.0 9.0
22  1 1 2   0   0 -1.844802e+03 -2.991414e+02  6.167776e+02  1.968043e+03 0.0 0.0 9.0
#pdf 21 2 2.393042e-01 6.146038e-01 5000.0 7.627829e-02 5.065105e-04
</event>
<event>
4 7 1.0 5000.0 7.905138e-03 7.739137e-02
 2 -1 0 0 101   0  0.000000e+00  0.000000e+00  3.171849e+03  3.171849e+03 0.0 0.0 9.0
21 -1 0 0 103 101  0.000000e+00  0.000000e+00 -1.922791e+03  1.922791e+03 0.0 0.0 9.0
 2  1 1 2 103   0  1.256257e+03  2.205167e+02  2.805811e+03  3.082107e+03 0.0022 0.0 9.0
22  1 1 2   0   0 -1.256257e+03 -2.205167e+02 -1.556753e+03  2.012533e+03 0.0 0.0 9.0
#pdf 2 21 4.879768e-01 2.958140e-01 5000.0 7.736221e-02 2.543458e-01
</event>
<event>
4 7 1.0 5000.0 7.905138e-03 7.739137e-02
 2 -1 0 0 101   0  0.000000e+00  0.000000e+00  3.643591e+03  3.643591e+03 0.0 0.0 9.0
21 -1 0 0 103 101  0.000000e+00  0.000000e+00 -1.595505e+03  1.595505e+03 0.0 0.0 9.0
22  1 1 2   0   0  1.965306e+03  1.380175e+03  7.908831e+02  2.528400e+03 0.0 0.0 9.0
 2  1 1 2 103   0 -1.965306e+03 -1.380175e+03  1.257203e+03  2.710695e+03 0.0022 0.0 9.0
#pdf 2 21 5.605524e-01 2.454622e-01 5000.0 4.216237e-02 3.197359e-01
</event>
<event>
4 7 1.0 5000.0 7.905138e-03 7.739137e-02
 2 -1 0 0 101   0  0.000000e+00  0.000000e+00  1.444159e+03  1.444159e+03 0.0 0.0 9.0
21 -1 0 0 103 101  0.000000e+00  0.000000e+00 -4.370798e+03  4.370798e+03 0.0 0.0 9.0
 2  1 1 2 103   0 -1.791347e+03  1.732068e+03 -1.091656e+03  2.720422e+03 0.0022 0.0 9.0
22  1 1 2   0   0  1.791347e+03 -1.732068e+03 -1.834983e+03  3.094535e+03 0.0 0.0 9.0
#pdf 2 21 2.221783e-01 6.724304e-01 5000.0 3.514290e-01 1.281961e-02
</event>
<event>
4 7 1.0 5000.0 7.905138e-03 7.739137e-02
 2 -1 0 0 101   0  0.000000e+00  0.000000e+00  1.745965e+03  1.745965e+03 0.0 0.0 9.0
21 -1 0 0 103 101  0.000000e+00  0.000000e+00 -3.697131e+03  3.697131e+03 0.0 0.0 9.0
 2  1 1 2 103   0  1.683466e+03  1.228578e+02  1.058520e+03  1.992390e+03 0.0022 0.0 9.0
22  1 1 2   0   0 -1.683466e+03 -1.228578e+02 -3.009687e+03  3.450706e+03 0.0 0.0 9.0
#pdf 2 21 2.686099e-01 5.687894e-01 5000.0 2.890012e-01 3.906639e-02
</event>
<event>
4 7 1.0 5000.0 7.905138e-03 7.739137e-02
21 -1 0 0 103 101  0.000000e+00  0.000000e+00  4.368250e+03  4.368250e+03 0.0 0.0 9.0
 2 -1 0 0 101   0  0.000000e+00  0.000000e+00 -1.478990e+03  1.478990e+03 0.0 0.0 9.0
 2  1 1 2 103   0  7.944661e+02  1.093212e+03  3.920781e+03  4.147145e+03 0.0022 0.0 9.0
22  1 1 2   0   0 -7.944661e+02 -1.093212e+03 -1.031521e+03  1.700095e+03 0.0 0.0 9.0
#pdf 21 2 6.720384e-01 2.275369e-01 5000.0 1.857039e-04 8.834304e-02
</event>
<event>
4 7 1.0 5000.0 7.905138e-03 7.739137e-02
21 -1 0 0 103 101  0.000000e+00  0.000000e+00  3.075671e+03  3.075671e+03 0.0 0.0 9.0
 2 -1 0 0 101   0  0.000000e+00  0.000000e+00 -1.442788e+03  1.442788e+03 0.0 0.0 9.0
 2  1 1 2 103   0  3.961117e+02 -1.989523e+03  1.425432e+03  2.479307e+03 0.0022 0.0 9.0
22  1 1 2   0   0 -3.961117e+02  1.989523e+03  2.074513e+02  2.039152e+03 0.0 0.0 9.0
#pdf 21 2 4.731802e-01 2.219673e-01 5000.0 4.058614e-03 9.485556e-02
</event>
<event>
4 7 1.0 5000.0 7.905138e-03 7.739137e-02
21 -1 0 0 103 101  0.000000e+00  0.000000e+00  3.413253e+03  3.413253e+03 0.0 0.0 9.0
 2 -1 0 0 101   0  0.000000e+00  0.000000e+00 -2.043831e+03  2.043831e+03 0.0 0.0 9.0
 2  1 1 2 103   0 -5.914001e+02 -8.671499e+00 -1.974538e+03  2.061220e+03 0.0022 0.0 9.0
22  1 1 2   0   0  5.914001e+02  8.671499e+00  3.343959e+03  3.395864e+03 0.0 0.0 9.0
#pdf 21 2 5.251158e-01 3.144356e-01 5000.0 1.983001e-03 3.019154e-02
</event>
<event>
4 7 1.0 5000.0 7.905138e-03 7.739137e-02
 2 -1 0 0 101   0  0.000000e+00  0.000000e+00  5.059729e+03  5.059729e+03 0.0 0.0 9.0
21 -1 0 0 103 101  0.000000e+00  0.000000e+00 -1.227619e+03  1.227619e+03 0.0 0.0 9.0
 2  1 1 2 103   0  1.024454e+03 -1.534810e+03  4.029091e+03  4.431560e+03 0.0022 0.0 9.0
22  1 1 2   0   0 -1.024454e+03  1.534810e+03 -1.969809e+02  1.855788e+03 0.0 0.0 9.0
#pdf 2 21 7.784199e-01 1.888644e-01 5000.0 2.586249e-03 3.973534e-01
</event>
<event>
4 7 1.0 5000.0 7.905138e-03 7.739137e-02
 2 -1 0 0 101   0  0.000000e+00  0.000000e+00  2.837589e+03  2.837589e+03 0.0 0.0 9.0
21 -1 0 0 103 101  0.000000e+00  0.000000e+00 -2.205107e+03  2.205107e+03 0.0 0.0 9.0
 2  1 1 2 103   0  1.938704e+03 -3.239194e+02  1.875712e+03  2.716945e+03 0.0022 0.0 9.0
22  1 1 2   0   0 -1.938704e+03  3.239194e+02 -1.243230e+03  2.325751e+03 0.0 0.0 9.0
#pdf 2 21 4.365521e-01 3.392473e-01 5000.0 1.122538e-01 2.033650e-01
</event>
<event>
4 7 1.0 5000.0 7.905138e-03 7.739137e-02
 2 -1 0 0 101   0  0.000000e+00  0.000000e+00  2.528956e+03  2.528956e+03 0.0 0.0 9.0
21 -1 0 0 103 101  0.000000e+00  0.000000e+00 -2.458428e+03  2.458428e+03 0.0 0.0 9.0
 2  1 1 2 103   0 -1.103455e+03  2.018027e+03 -9.277491e+02  2.480074e+03 0.0022 0.0 9.0
22  1 1 2   0   0  1.103455e+03 -2.018027e+03  9.982768e+02  2.507310e+03 0.0 0.0 9.0
#pdf 2 21 3.890701e-01 3.782197e-01 5000.0 1.525613e-01 1.628834e-01
</event>
<event>
4 7 1.0 5000.0 7.905138e-03 7.739137e-02
 2 -1 0 0 101   0  0.000000e+00  0.000000e+00  1.548644e+03  1.548644e+03 0.0 0.0 9.0
21 -1 0 0 103 101  0.000000e+00  0.000000e+00 -3.122510e+03  3.122510e+03 0.0 0.0 9.0
22  1 1 2   0   0 -2.081576e+03 -6.540931e+02 -1.077527e+03  2.433488e+03 0.0 0.0 9.0
 2  1 1 2 103   0  2.081576e+03  6.540931e+02 -4.963389e+02  2.237666e+03 0.0022 0.0 9.0
#pdf 2 21 2.382530e-01 4.803861e-01 5000.0 3.294386e-01 8.195852e-02
</event>
<event>
4 7 1.0 5000.0 7.905138e-03 7.739137e-02
 2 -1 0 0 101   0  0.000000e+00  0.000000e+00  2.019954e+03  2.019954e+03 0.0 0.0 9.0
21 -1 0 0 103 101  0.000000e+00  0.000000e+00 -2.993585e+03  2.993585e+03 0.0 0.0 9.0
22  1 1 2   0   0  2.371237e+02  2.361825e+03  1.678772e+02  2.379628e+03 0.0 0.0 9.0
 2  1 1 2 103   0 -2.371237e+02 -2.361825e+03 -1.141508e+03  2.633911e+03 0.0022 0.0 9.0
#pdf 2 21 3.107621e-01 4.605515e-01 5000.0 2.361527e-01 9.485594e-02
</event>
<event>
4 7 1.0 5000.0 7.905138e-03 7.739137e-02
 2 -1 0 0 101   0  0.000000e+00  0.000000e+00  2.762259e+03  2.762259e+03 0.0 0.0 9.0
21 -1 0 0 103 101  0.000000e+00  0.000000e+00 -1.943050e+03  1.943050e+03 0.0 0.0 9.0
22  1 1 2   0   0  1.439426e+02 -2.271435e+03  8.488301e+02  2.429125e+03 0.0 0.0 9.0
 2  1 1 2 103   0 -1.439426e+02  2.271435e+03 -2.962079e+01  2.276184e+03 0.0022 0.0 9.0
#pdf 2 21 4.249629e-01 2.989307e-01 5000.0 1.213442e-01 2.505092e-01
</event>
<event>
4 7 1.0 5000.0 7.905138e-03 7.739137e-02
 2 -1 0 0 101   0  0.000000e+00  0.000000e+00  1.499999e+03  1.499999e+03 0.0 0.0 9.0
21 -1 0 0 103 101  0.000000e+00  0.000000e+00 -4.300927e+03  4.300927e+03 0.0 0.0 9.0
 2  1 1 2 103   0 -2.438379e+03 -4.810993e+02 -8.024605e+02  2.611722e+03 0.0022 0.0 9.0
22  1 1 2   0   0  2.438379e+03  4.810993e+02 -1.998467e+03  3.189204e+03 0.0 0.0 9.0
#pdf 2 21 2.307691e-01 6.616811e-01 5000.0 3.396748e-01 1.462616e-02
</event>
<event>
4 7 1.0 5000.0 7.905138e-03 7.739137e-02
21 -1 0 0 103 101  0.000000e+00  0.000000e+00  2.124109e+03  2.124109e+03 0.0 0.0 9.0
 2 -1 0 0 101   0  0.000000e+00  0.000000e+00 -2.953778e+03  2.953778e+03 0.0 0.0 9.0
 2  1 1 2 103   0 -1.287615e+03  5.372538e+02 -2.523448e+03  2.883467e+03 0.0022 0.0 9.0
22  1 1 2   0   0  1.287615e+03 -5.372538e+02  1.693779e+03  2.194420e+03 0.0 0.0 9.0
#pdf 21 2 3.267860e-01 4.544274e-01 5000.0 2.594677e-02 5.207441e-03
</event>
<event>
4 7 1.0 5000.0 7.905138e-03 7.739137e-02
 2 -1 0 0 101   0  0.000000e+00  0.000000e+00  4.004877e+03  4.004877e+03 0.0 0.0 9.0
21 -1 0 0 103 101  0.000000e+00  0.000000e+00 -1.595236e+03  1.595236e+03 0.0 0.0 9.0
 2  1 1 2 103   0  7.397880e+02 -1.635286e+03 -7.667069e+02  1.951739e+03 0.0022 0.0 9.0
22  1 1 2   0   0 -7.397880e+02  1.635286e+03  3.176348e+03  3.648374e+03 0.0 0.0 9.0
#pdf 2 21 6.161349e-01 2.454209e-01 5000.0 2.443607e-02 3.197910e-01
</event>
<event>
4 7 1.0 5000.0 7.905138e-03 7.739137e-02
21 -1 0 0 103 101  0.000000e+00  0.000000e+00  2.679308e+03  2.679308e+03 0.0 0.0 9.0
 2 -1 0 0 101   0  0.000000e+00  0.000000e+00 -2.347430e+03  2.347430e+03 0.0 0.0 9.0
22  1 1 2   0   0  2.431172e+03  5.567967e+02 -9.706893e+01  2.496005e+03 0.0 0.0 9.0
 2  1 1 2 103   0 -2.431172e+03 -5.567967e+02  4.289469e+02  2.530734e+03 0.0022 0.0 9.0
#pdf 21 2 4.122013e-01 3.611431e-01 5000.0 8.978667e-03 1.700882e-02
</event>
<event>
4 7 1.0 5000.0 7.905138e-03 7.739137e-02
 2 -1 0 0 101   0  0.000000e+00  0.000000e+00  2.968076e+03  2.968076e+03 0.0 0.0 9.0
21 -1 0 0 103 101  0.000000e+00  0.000000e+00 -2.087314e+03  2.087314e+03 0.0 0.0 9.0
22  1 1 2   0   0 -1.067520e+03 -1.916696e+03  1.634218e+03  2.735688e+03 0.0 0.0 9.0
 2  1 1 2 103   0  1.067520e+03  1.916696e+03 -7.534560e+02  2.319702e+03 0.0022 0.0 9.0
#pdf 2 21 4.566271e-01 3.211253e-01 5000.0 9.756947e-02 2.239366e-01
</event>
<event>
4 7 1.0 5000.0 7.905138e-03 7.739137e-02
21 -1 0 0 103 101  0.000000e+00  0.000000e+00  2.337529e+03  2.337529e+03 0.0 0.0 9.0
 2 -1 0 0 101   0  0.000000e+00  0.000000e+00 -2.438430e+03  2.438430e+03 0.0 0.0 9.0
22  1 1 2   0   0 -2.007517e+03  7.007087e+02 -1.136411e+03  2.410922e+03 0.0 0.0 9.0
 2  1 1 2 103   0  2.007517e+03 -7.007087e+02  1.035511e+03  2.365037e+03 0.0022 0.0 9.0
#pdf 21 2 3.596199e-01 3.751431e-01 5000.0 1.732894e-02 1.430918e-02
</event>
<event>
4 7 1.0 5000.0 7.905138e-03 7.739137e-02
 2 -1 0 0 101   0  0.000000e+00  0.000000e+00  2.392347e+03  2.392347e+03 0.0 0.0 9.0
21 -1 0 0 103 101  0.000000e+00  0.000000e+00 -2.682308e+03  2.682308e+03 0.0 0.0 9.0
 2  1 1 2 103   0  4.845025e+02  2.249787e+03 -1.205358e+03  2.597917e+03 0.0022 0.0 9.0
22  1 1 2   0   0 -4.845025e+02 -2.249787e+03  9.153961e+02  2.476738e+03 0.0 0.0 9.0
#pdf 2 21 3.680533e-01 4.126628e-01 5000.0 1.729226e-01 1.315316e-01
</event>
<event>
4 7 1.0 5000.0 7.905138e-03 7.739137e-02
 2 -1 0 0 101   0  0.000000e+00  0.000000e+00  2.453540e+03  2.453540e+03 0.0 0.0 9.0
21 -1 0 0 103 101  0.000000e+00  0.000000e+00 -2.562652e+03  2.562652e+03 0.0 0.0 9.0
22  1 1 2   0   0  1.447625e+03  2.894303e+02 -2.081901e+03  2.552195e+03 0.0 0.0 9.0
 2  1 1 2 103   0 -1.447625e+03 -2.894303e+02  1.972789e+03  2.463998e+03 0.0022 0.0 9.0
#pdf 2 21 3.774677e-01 3.942542e-01 5000.0 1.636135e-01 1.477768e-01
</event>
<event>
4 7 1.0 5000.0 7.905138e-03 7.739137e-02
 2 -1 0 0 101   0  0.000000e+00  0.000000e+00  2.098871e+03  2.098871e+03 0.0 0.0 9.0
21 -1 0 0 103 101  0.000000e+00  0.000000e+00 -3.023922e+03  3.023922e+03 0.0 0.0 9.0
 2  1 1 2 103   0  2.327032e+03 -4.604077e+00  5.188660e+02  2.384181e+03 0.0022 0.0 9.0
22  1 1 2   0   0 -2.327032e+03  4.604077e+00 -1.443918e+03  2.738612e+03 0.0 0.0 9.0
#pdf 2 21 3.229032e-01 4.652188e-01 5000.0 2.218715e-01 9.170813e-02
</event>
<event>
4 7 1.0 5000.0 7.905138e-03 7.739137e-02
 2 -1 0 0 101   0  0.000000e+00  0.000000e+00  2.528127e+03  2.528127e+03 0.0 0.0 9.0
21 -1 0 0 103 101  0.000000e+00  0.000000e+00 -2.532829e+03  2.532829e+03 0.0 0.0 9.0
 2  1 1 2 103   0 -2.438274e+02  7.596076e+02 -2.403781e+03  2.532709e+03 0.0022 0.0 9.0
22  1 1 2   0   0  2.438274e+02 -7.596076e+02  2.399079e+03  2.528247e+03 0.0 0.0 9.0
#pdf 2 21 3.889427e-01 3.896661e-01 5000.0 1.526801e-01 1.520066e-01
</event>
<event>
4 7 1.0 5000.0 7.905138e-03 7.739137e-02
 2 -1 0 0 101   0  0.000000e+00  0.000000e+00  3.159298e+03  3.159298e+03 0.0 0.0 9.0
21 -1 0 0 103 101  0.000000e+00  0.000000e+00 -1.938857e+03  1.938857e+03 0.0 0.0 9.0
22  1 1 2   0   0  8.103767e+02 -7.210655e+02  2.901425e+03  3.097566e+03 0.0 0.0 9.0
 2  1 1 2 103   0 -8.103767e+02  7.210655e+02 -1.680985e+03  2.000589e+03 0.0022 0.0 9.0
#pdf 2 21 4.860458e-01 2.982857e-01 5000.0 7.851417e-02 2.512999e-01
</event>
<event>
4 7 1.0 5000.0 7.905138e-03 7.739137e-02
21 -1 0 0 103 101  0.000000e+00  0.000000e+00  1.457586e+03  1.457586e+03 0.0 0.0 9.0
 2 -1 0 0 101   0  0.000000e+00  0.000000e+00 -4.182005e+03  4.182005e+03 0.0 0.0 9.0
22  1 1 2   0   0  8.264705e+02 -1.714541e+03  4.338225e+02  1.952154e+03 0.0 0.0 9.0
 2  1 1 2 103   0 -8.264705e+02  1.714541e+03 -3.158242e+03  3.687437e+03 0.0022 0.0 9.0
#pdf 21 2 2.242441e-01 6.433855e-01 5000.0 9.213187e-02 3.111617e-04
</event>
<event>
4 7 1.0 5000.0 7.905138e-03 7.739137e-02
 2 -1 0 0 101   0  0.000000e+00  0.000000e+00  3.067345e+03  3.067345e+03 0.0 0.0 9.0
21 -1 0 0 103 101  0.000000e+00  0.000000e+00 -2.050579e+03  2.050579e+03 0.0 0.0 9.0
 2  1 1 2 103   0  2.439931e+03  5.798700e+02  5.266248e+02  2.562586e+03 0.0022 0.0 9.0
22  1 1 2   0   0 -2.439931e+03 -5.798700e+02  4.901411e+02  2.555338e+03 0.0 0.0 9.0
#pdf 2 21 4.718992e-01 3.154737e-01 5000.0 8.732325e-02 2.305587e-01
</event>
<event>
4 7 1.0 5000.0 7.905138e-03 7.739137e-02
21 -1 0 0 103 101  0.000000e+00  0.000000e+00  1.995044e+03  1.995044e+03 0.0 0.0 9.0
 2 -1 0 0 101   0  0.000000e+00  0.000000e+00 -3.138565e+03  3.138565e+03 0.0 0.0 9.0
22  1 1 2   0   0  1.142059e+02  2.425635e+03 -1.191334e+03  2.704815e+03 0.0 0.0 9.0
 2  1 1 2 103   0 -1.142059e+02 -2.425635e+03  4.781337e+01  2.428793e+03 0.0022 0.0 9.0
#pdf 21 2 3.069298e-01 4.828561e-01 5000.0 3.312362e-02 3.561573e-03
</event>
<event>
4 7 1.0 5000.0 7.905138e-03 7.739137e-02
21 -1 0 0 103 101  0.000000e+00  0.000000e+00  2.020670e+03  2.020670e+03 0.0 0.0 9.0
 2 -1 0 0 101   0  0.000000e+00  0.000000e+00 -3.045847e+03  3.045847e+03 0.0 0.0 9.0
22  1 1 2   0   0  8.661201e+02  7.801133e+02 -2.748802e+03  2.985742e+03 0.0 0.0 9.0
 2  1 1 2 103   0 -8.661201e+02 -7.801133e+02  1.723625e+03  2.080775e+03 0.0022 0.0 9.0
#pdf 21 2 3.108723e-01 4.685918e-01 5000.0 3.155370e-02 4.314935e-03
</event>
<event>
4 7 1.0 5000.0 7.905138e-03 7.739137e-02
21 -1 0 0 103 101  0.000000e+00  0.000000e+00  1.656621e+03  1.656621e+03 0.0 0.0 9.0
 2 -1 0 0 101   0  0.000000e+00  0.000000e+00 -3.729228e+03  3.729228e+03 0.0 0.0 9.0
22  1 1 2   0   0  7.940984e+02  7.632797e+02 -3.450379e+03  3.621920e+03 0.0 0.0 9.0
 2  1 1 2 103   0 -7.940984e+02 -7.632797e+02  1.377772e+03  1.763929e+03 0.0022 0.0 9.0
#pdf 21 2 2.548647e-01 5.737273e-01 5000.0 6.282389e-02 9.677718e-04
</event>
<event>
4 7 1.0 5000.0 7.905138e-03 7.739137e-02
21 -1 0 0 103 101  0.000000e+00  0.000000e+00  1.661855e+03  1.661855e+03 0.0 0.0 9.0
 2 -1 0 0 101   0  0.000000e+00  0.000000e+00 -3.772426e+03  3.772426e+03 0.0 0.0 9.0
 2  1 1 2 103   0 -3.566923e+00  7.273044e+02 -3.655267e+03  3.726924e+03 0.0022 0.0 9.0
22  1 1 2   0   0  3.566923e+00 -7.273044e+02  1.544696e+03  1.707357e+03 0.0 0.0 9.0
#pdf 21 2 2.556700e-01 5.803732e-01 5000.0 6.219386e-02 8.737418e-04
</event>
<event>
4 7 1.0 5000.0 7.905138e-03 7.739137e-02
 2 -1 0 0 101   0  0.000000e+00  0.000000e+00  1.693574e+03  1.693574e+03 0.0 0.0 9.0
21 -1 0 0 103 101  0.000000e+00  0.000000e+00 -3.874376e+03  3.874376e+03 0.0 0.0 9.0
22  1 1 2   0   0  9.465216e+02  1.676145e+03  7.463702e+02  2.064566e+03 0.0 0.0 9.0
 2  1 1 2 103   0 -9.465216e+02 -1.676145e+03 -2.927172e+03  3.503384e+03 0.0022 0.0 9.0
#pdf 2 21 2.605499e-01 5.960578e-01 5000.0 2.995787e-01 3.002706e-02
</event>
<event>
4 7 1.0 5000.0 7.905138e-03 7.739137e-02
21 -1 0 0 103 101  0.000000e+00  0.000000e+00  4.441145e+03  4.441145e+03 0.0 0.0 9.0
 2 -1 0 0 101   0  0.000000e+00  0.000000e+00 -1.362391e+03  1.362391e+03 0.0 0.0 9.0
 2  1 1 2 103   0  1.805022e+03 -1.644439e+03  1.188845e+03  2.715812e+03 0.0022 0.0 9.0
22  1 1 2   0   0 -1.805022e+03  1.644439e+03  1.889909e+03  3.087724e+03 0.0 0.0 9.0
#pdf 21 2 6.832531e-01 2.095987e-01 5000.0 1.502425e-04 1.110805e-01
</event>
<event>
4 7 1.0 5000.0 7.905138e-03 7.739137e-02
21 -1 0 0 103 101  0.000000e+00  0.000000e+00  2.067197e+03  2.067197e+03 0.0 0.0 9.0
 2 -1 0 0 101   0  0.000000e+00  0.000000e+00 -3.074643e+03  3.074643e+03 0.0 0.0 9.0
 2  1 1 2 103   0  2.349071e+02 -2.413949e+03 -1.205483e+03  2.708417e+03 0.0022 0.0 9.0
22  1 1 2   0   0 -2.349071e+02  2.413949e+03  1.980373e+02  2.433423e+03 0.0 0.0 9.0
#pdf 21 2 3.180303e-01 4.730220e-01 5000.0 2.888209e-02 4.067222e-03
</event>
<event>
4 7 1.0 5000.0 7.905138e-03 7.739137e-02
21 -1 0 0 103 101  0.000000e+00  0.000000e+00  2.314486e+03  2.314486e+03 0.0 0.0 9.0
 2 -1 0 0 101   0  0.000000e+00  0.000000e+00 -2.277685e+03  2.277685e+03 0.0 0.0 9.0
22  1 1 2   0   0  7.206338e+02 -1.021796e+03 -1.907354e+03  2.280653e+03 0.0 0.0 9.0
 2  1 1 2 103   0 -7.206338e+02  1.021796e+03  1.944155e+03  2.311518e+03 0.0022 0.0 9.0
#pdf 21 2 3.560748e-01 3.504131e-01 5000.0 1.810117e-02 1.942057e-02
</event>
<event>
4 7 1.0 5000.0 7.905138e-03 7.739137e-02
 2 -1 0 0 101   0  0.000000e+00  0.000000e+00  1.963022e+03  1.963022e+03 0.0 0.0 9.0
21 -1 0 0 103 101  0.000000e+00  0.000000e+00 -3.330762e+03  3.330762e+03 0.0 0.0 9.0
 2  1 1 2 103   0 -1.602304e+03 -1.766190e+03  2.713592e+02  2.400092e+03 0.0022 0.0 9.0
22  1 1 2   0   0  1.602304e+03  1.766190e+03 -1.639099e+03  2.893692e+03 0.0 0.0 9.0
#pdf 2 21 3.020034e-01 5.124249e-01 5000.0 2.467448e-01 6.378567e-02
</event>
<event>
4 7 1.0 5000.0 7.905138e-03 7.739137e-02
21 -1 0 0 103 101  0.000000e+00  0.000000e+00  3.880224e+03  3.880224e+03 0.0 0.0 9.0
 2 -1 0 0 101   0  0.000000e+00  0.000000e+00 -1.614890e+03  1.614890e+03 0.0 0.0 9.0
22  1 1 2   0   0  5.591567e+02  1.223704e+03 -1.184305e+03  1.792396e+03 0.0 0.0 9.0
 2  1 1 2 103   0 -5.591567e+02 -1.223704e+03  3.449639e+03  3.702718e+03 0.0022 0.0 9.0
#pdf 21 2 5.969576e-01 2.484446e-01 5000.0 6.736313e-04 6.802067e-02
</event>
<event>
4 7 1.0 5000.0 7.905138e-03 7.739137e-02
 2 -1 0 0 101   0  0.000000e+00  0.000000e+00  2.606100e+03  2.606100e+03 0.0 0.0 9.0
21 -1 0 0 103 101  0.000000e+00  0.000000e+00 -2.421232e+03  2.421232e+03 0.0 0.0 9.0
 2  1 1 2 103   0 -1.850367e+03 -9.102174e+02  1.527846e+03  2.566450e+03 0.0022 0.0 9.0
22  1 1 2   0   0  1.850367e+03  9.102174e+02 -1.342978e+03  2.460882e+03 0.0 0.0 9.0
#pdf 2 21 4.009385e-01 3.724972e-01 5000.0 1.417376e-01 1.684838e-01
</event>
<event>
4 7 1.0 5000.0 7.905138e-03 7.739137e-02
 2 -1 0 0 101   0  0.000000e+00  0.000000e+00  3.156966e+03  3.156966e+03 0.0 0.0 9.0
21 -1 0 0 103 101  0.000000e+00  0.000000e+00 -1.975480e+03  1.975480e+03 0.0 0.0 9.0
 2  1 1 2 103   0 -1.291177e+03 -1.985172e+03  1.405386e+03  2.753753e+03 0.0022 0.0 9.0
22  1 1 2   0   0  1.291177e+03  1.985172e+03 -2.239003e+02  2.378692e+03 0.0 0.0 9.0
#pdf 2 21 4.856870e-01 3.039200e-01 5000.0 7.872951e-02 2.444047e-01
</event>
<event>
4 7 1.0 5000.0 7.905138e-03 7.739137e-02
 2 -1 0 0 101   0  0.000000e+00  0.000000e+00  2.271526e+03  2.271526e+03 0.0 0.0 9.0
21 -1 0 0 103 101  0.000000e+00  0.000000e+00 -3.183626e+03  3.183626e+03 0.0 0.0 9.0
 2  1 1 2 103   0  2.301092e+03  1.380904e+03 -2.810452e+02  2.698315e+03 0.0022 0.0 9.0
22  1 1 2   0   0 -2.301092e+03 -1.380904e+03 -6.310547e+02  2.756837e+03 0.0 0.0 9.0
#pdf 2 21 3.494656e-01 4.897886e-01 5000.0 1.922405e-01 7.629206e-02
</event>
<event>
4 7 1.0 5000.0 7.905138e-03 7.739137e-02
21 -1 0 0 103 101  0.000000e+00  0.000000e+00  1.683148e+03  1.683148e+03 0.0 0.0 9.0
 2 -1 0 0 101   0  0.000000e+00  0.000000e+00 -3.547469e+03  3.547469e+03 0.0 0.0 9.0
 2  1 1 2 103   0  1.472195e+03 -1.484571e+03 -2.285819e+03  3.097786e+03 0.0022 0.0 9.0
22  1 1 2   0   0 -1.472195e+03  1.484571e+03  4.214982e+02  2.132831e+03 0.0 0.0 9.0
#pdf 21 2 2.589459e-01 5.457645e-01 5000.0 5.969115e-02 1.471541e-03
</event>
<event>
4 7 1.0 5000.0 7.905138e-03 7.739137e-02
 2 -1 0 0 101   0  0.000000e+00  0.000000e+00  1.564682e+03  1.564682e+03 0.0 0.0 9.0
21 -1 0 0 103 101  0.000000e+00  0.000000e+00 -3.819591e+03  3.819591e+03 0.0 0.0 9.0
 2  1 1 2 103   0 -8.511865e+02  1.976679e+03  1.495212e+02  2.157345e+03 0.0022 0.0 9.0
22  1 1 2   0   0  8.511865e+02 -1.976679e+03 -2.404430e+03  3.226928e+03 0.0 0.0 9.0
#pdf 2 21 2.407203e-01 5.876294e-01 5000.0 3.260928e-01 3.263452e-02
</event>
<event>
4 7 1.0 5000.0 7.905138e-03 7.739137e-02
 2 -1 0 0 101   0  0.000000e+00  0.000000e+00  1.542924e+03  1.542924e+03 0.0 0.0 9.0
21 -1 0 0 103 101  0.000000e+00  0.000000e+00 -4.133062e+03  4.133062e+03 0.0 0.0 9.0
 2  1 1 2 103   0  1.553950e+03 -5.254554e+01 -3.531328e+03  3.858471e+03 0.0022 0.0 9.0
22  1 1 2   0   0 -1.553950e+03  5.254554e+01  9.411899e+02  1.817515e+03 0.0 0.0 9.0
#pdf 2 21 2.373729e-01 6.358557e-01 5000.0 3.306368e-01 1.972652e-02
</event>
<event>
4 7 1.0 5000.0 7.905138e-03 7.739137e-02
 2 -1 0 0 101   0  0.000000e+00  0.000000e+00  4.231875e+03  4.231875e+03 0.0 0.0 9.0
21 -1 0 0 103 101  0.000000e+00  0.000000e+00 -1.108050e+03  1.108050e+03 0.0 0.0 9.0
22  1 1 2   0   0  1.648243e+03 -1.397351e+03  1.388259e+03  2.568376e+03 0.0 0.0 9.0
 2  1 1 2 103   0 -1.648243e+03  1.397351e+03  1.735566e+03  2.771549e+03 0.0022 0.0 9.0
#pdf 2 21 6.510577e-01 1.704692e-01 5000.0 1.658911e-02 4.225299e-01
</event>
<event>
4 7 1.0 5000.0 7.905138e-03 7.739137e-02
21 -1 0 0 103 101  0.000000e+00  0.000000e+00  1.648671e+03  1.648671e+03 0.0 0.0 9.0
 2 -1 0 0 101   0  0.000000e+00  0.000000e+00 -3.851417e+03  3.851417e+03 0.0 0.0 9.0
 2  1 1 2 103   0 -4.162868e+02 -7.815108e+02 -3.676039e+03  3.781180e+03 0.0022 0.0 9.0
22  1 1 2   0   0  4.162868e+02  7.815108e+02  1.473293e+03  1.718908e+03 0.0 0.0 9.0
#pdf 21 2 2.536416e-01 5.925257e-01 5000.0 6.379108e-02 7.225907e-04
</event>
<event>
4 7 1.0 5000.0 7.905138e-03 7.739137e-02
21 -1 0 0 103 101  0.000000e+00  0.000000e+00  2.055115e+03  2.055115e+03 0.0 0.0 9.0
 2 -1 0 0 101   0  0.000000e+00  0.000000e+00 -3.101482e+03  3.101482e+03 0.0 0.0 9.0
22  1 1 2   0   0  1.846194e+02 -2.502636e+03 -2.404812e+02  2.520933e+03 0.0 0.0 9.0
 2  1 1 2 103   0 -1.846194e+02  2.502636e+03 -8.058863e+02  2.635664e+03 0.0022 0.0 9.0
#pdf 21 2 3.161715e-01 4.771512e-01 5000.0 2.955050e-02 3.847703e-03
</event>
<event>
4 7 1.0 5000.0 7.905138e-03 7.739137e-02
21 -1 0 0 103 101  0.000000e+00  0.000000e+00  1.722685e+03  1.722685e+03 0.0 0.0 9.0
 2 -1 0 0 101   0  0.000000e+00  0.000000e+00 -3.574933e+03  3.574933e+03 0.0 0.0 9.0
 2  1 1 2 103   0  1.664016e+03  1.666127e+03 -9.006009e+01  2.356489e+03 0.0022 0.0 9.0
22  1 1 2   0   0 -1.664016e+03 -1.666127e+03 -1.762188e+03  2.941128e+03 0.0 0.0 9.0
#pdf 21 2 2.650284e-01 5.499896e-01 5000.0 5.533583e-02 1.381864e-03
</event>
<event>
4 7 1.0 5000.0 7.905138e-03 7.739137e-02
21 -1 0 0 103 101  0.000000e+00  0.000000e+00  4.469699e+03  4.469699e+03 0.0 0.0 9.0
 2 -1 0 0 101   0  0.000000e+00  0.000000e+00 -1.396266e+03  1.396266e+03 0.0 0.0 9.0
 2  1 1 2 103   0  1.758623e+03  4.674947e+02  3.546222e+03  3.985850e+03 0.0022 0.0 9.0
22  1 1 2   0   0 -1.758623e+03 -4.674947e+02 -4.727883e+02  1.880116e+03 0.0 0.0 9.0
#pdf 21 2 6.876461e-01 2.148102e-01 5000.0 1.381557e-04 1.039571e-01
</event>
<event>
4 7 1.0 5000.0 7.905138e-03 7.739137e-02
 2 -1 0 0 101   0  0.000000e+00  0.000000e+00  2.674979e+03  2.674979e+03 0.0 0.0 9.0
21 -1 0 0 103 101  0.000000e+00  0.000000e+00 -2.294889e+03  2.294889e+03 0.0 0.0 9.0
 2  1 1 2 103   0 -7.565616e+02 -1.877707e+03 -1.242650e+03  2.375363e+03 0.0022 0.0 9.0
22  1 1 2   0   0  7.565616e+02  1.877707e+03  1.622741e+03  2.594505e+03 0.0 0.0 9.0
#pdf 2 21 4.115353e-01 3.530599e-01 5000.0 1.324919e-01 1.884120e-01
</event>
<event>
4 7 1.0 5000.0 7.905138e-03 7.739137e-02
21 -1 0 0 103 101  0.000000e+00  0.000000e+00  3.122532e+03  3.122532e+03 0.0 0.0 9.0
 2 -1 0 0 101   0  0.000000e+00  0.000000e+00 -1.963522e+03  1.963522e+03 0.0 0.0 9.0
22  1 1 2   0   0  1.658174e+03 -1.653705e+03  1.405526e+03  2.731261e+03 0.0 0.0 9.0
 2  1 1 2 103   0 -1.658174e+03  1.653705e+03 -2.465165e+02  2.354793e+03 0.0022 0.0 9.0
#pdf 21 2 4.803895e-01 3.020803e-01 5000.0 3.682862e-03 3.512501e-02
</event>
<event>
4 7 1.0 5000.0 7.905138e-03 7.739137e-02
21 -1 0 0 103 101  0.000000e+00  0.000000e+00  2.505464e+03  2.505464e+03 0.0 0.0 9.0
 2 -1 0 0 101   0  0.000000e+00  0.000000e+00 -2.454914e+03  2.454914e+03 0.0 0.0 9.0
 2  1 1 2 103   0  2.242551e+03  1.938206e+02 -1.015979e+03  2.469578e+03 0.0022 0.0 9.0
22  1 1 2   0   0 -2.242551e+03 -1.938206e+02  1.066530e+03  2.490800e+03 0.0 0.0 9.0
#pdf 21 2 3.854561e-01 3.776790e-01 5000.0 1.258427e-02 1.386977e-02
</event>
<event>
4 7 1.0 5000.0 7.905138e-03 7.739137e-02
21 -1 0 0 103 101  0.000000e+00  0.000000e+00  1.560771e+03  1.560771e+03 0.0 0.0 9.0
 2 -1 0 0 101   0  0.000000e+00  0.000000e+00 -3.082697e+03  3.082697e+03 0.0 0.0 9.0
 2  1 1 2 103   0  2.042748e+03  6.641198e+02 -2.905607e+02  2.167557e+03 0.0022 0.0 9.0
22  1 1 2   0   0 -2.042748e+03 -6.641198e+02 -1.231366e+03  2.475912e+03 0.0 0.0 9.0
#pdf 21 2 2.401186e-01 4.742611e-01 5000.0 7.550485e-02 4.000219e-03
</event>
<event>
4 7 1.0 5000.0 7.905138e-03 7.739137e-02
21 -1 0 0 103 101  0.000000e+00  0.000000e+00  2.697622e+03  2.697622e+03 0.0 0.0 9.0
 2 -1 0 0 101   0  0.000000e+00  0.000000e+00 -2.319462e+03  2.319462e+03 0.0 0.0 9.0
 2  1 1 2 103   0 -7.384280e+02 -2.264734e+03  9.546279e+02  2.566245e+03 0.0022 0.0 9.0
22  1 1 2   0   0  7.384280e+02  2.264734e+03 -5.764679e+02  2.450839e+03 0.0 0.0 9.0
#pdf 21 2 4.150188e-01 3.568403e-01 5000.0 8.662620e-03 1.793072e-02
</event>
<event>
4 7 1.0 5000.0 7.905138e-03 7.739137e-02
21 -1 0 0 103 101  0.000000e+00  0.000000e+00  2.811486e+03  2.811486e+03 0.0 0.0 9.0
 2 -1 0 0 101   0  0.000000e+00  0.000000e+00 -2.260356e+03  2.260356e+03 0.0 0.0 9.0
 2  1 1 2 103   0 -8.446339e+02 -2.755295e+02  2.648779e+03  2.793806e+03 0.0022 0.0 9.0
22  1 1 2   0   0  8.446339e+02  2.755295e+02 -2.097649e+03  2.278037e+03 0.0 0.0 9.0
#pdf 21 2 4.325364e-01 3.477471e-01 5000.0 6.922972e-03 2.006788e-02
</event>
<event>
4 7 1.0 5000.0 7.905138e-03 7.739137e-02
 2 -1 0 0 101   0  0.000000e+00  0.000000e+00  1.913860e+03  1.913860e+03 0.0 0.0 9.0
21 -1 0 0 103 101  0.000000e+00  0.000000e+00 -3.147198e+03  3.147198e+03 0.0 0.0 9.0
22  1 1 2   0   0 -2.440134e+03  2.403537e+02 -5.071826e+02  2.503848e+03 0.0 0.0 9.0
 2  1 1 2 103   0  2.440134e+03 -2.403537e+02 -7.261547e+02  2.557210e+03 0.0022 0.0 9.0
#pdf 2 21 2.944401e-01 4.841843e-01 5000.0 2.560491e-01 7.963583e-02
</event>
<event>
4 7 1.0 5000.0 7.905138e-03 7.739137e-02
 2 -1 0 0 101   0  0.000000e+00  0.000000e+00  2.184254e+03  2.184254e+03 0.0 0.0 9.0
21 -1 0 0 103 101  0.000000e+00  0.000000e+00 -3.033709e+03  3.033709e+03 0.0 0.0 9.0
22  1 1 2   0   0 -1.888020e+02  1.582714e+03 -2.473383e+03  2.942491e+03 0.0 0.0 9.0
 2  1 1 2 103   0  1.888020e+02 -1.582714e+03  1.623929e+03  2.275472e+03 0.0022 0.0 9.0
#pdf 2 21 3.360391e-01 4.667244e-01 5000.0 2.069256e-01 9.070807e-02
</event>
<event>
4 7 1.0 5000.0 7.905138e-03 7.739137e-02
21 -1 0 0 103 101  0.000000e+00  0.000000e+00  2.300929e+03  2.300929e+03 0.0 0.0 9.0
 2 -1 0 0 101   0  0.000000e+00  0.000000e+00 -2.659641e+03  2.659641e+03 0.0 0.0 9.0
22  1 1 2   0   0  2.004919e+03 -6.566443e+02  1.115840e+03  2.386626e+03 0.0 0.0 9.0
 2  1 1 2 103   0 -2.004919e+03  6.566443e+02 -1.474552e+03  2.573944e+03 0.0022 0.0 9.0
#pdf 21 2 3.539891e-01 4.091755e-01 5000.0 1.857746e-02 9.331279e-03
</event>
<event>
4 7 1.0 5000.0 7.905138e-03 7.739137e-02
21 -1 0 0 103 101  0.000000e+00  0.000000e+00  2.656261e+03  2.656261e+03 0.0 0.0 9.0
 2 -1 0 0 101   0  0.000000e+00  0.000000e+00 -2.274295e+03  2.274295e+03 0.0 0.0 9.0
 2  1 1 2 103   0  1.361294e+03  1.995318e+03 -2.650382e+02  2.429950e+03 0.0022 0.0 9.0
22  1 1 2   0   0 -1.361294e+03 -1.995318e+03  6.470042e+02  2.500605e+03 0.0 0.0 9.0
#pdf 21 2 4.086555e-01 3.498915e-01 5000.0 9.393329e-03 1.954586e-02
</event>
<event>
4 7 1.0 5000.0 7.905138e-03 7.739137e-02
21 -1 0 0 103 101  0.000000e+00  0.000000e+00  2.864447e+03  2.864447e+03 0.0 0.0 9.0
 2 -1 0 0 101   0  0.000000e+00  0.000000e+00 -2.200312e+03  2.200312e+03 0.0 0.0 9.0
22  1 1 2   0   0 -1.148206e+03  1.128527e+03 -1.611035e+03  2.277583e+03 0.0 0.0 9.0
 2  1 1 2 103   0  1.148206e+03 -1.128527e+03  2.275170e+03  2.787176e+03 0.0022 0.0 9.0
#pdf 21 2 4.406841e-01 3.385095e-01 5000.0 6.234742e-03 2.246974e-02
</event>
<event>
4 7 1.0 5000.0 7.905138e-03 7.739137e-02
 2 -1 0 0 101   0  0.000000e+00  0.000000e+00  2.578071e+03  2.578071e+03 0.0 0.0 9.0
21 -1 0 0 103 101  0.000000e+00  0.000000e+00 -2.373740e+03  2.373740e+03 0.0 0.0 9.0
22  1 1 2   0   0 -1.515856e+03  1.553336e+03 -1.085860e+03  2.426883e+03 0.0 0.0 9.0
 2  1 1 2 103   0  1.515856e+03 -1.553336e+03  1.290191e+03  2.524928e+03 0.0022 0.0 9.0
#pdf 2 21 3.966264e-01 3.651908e-01 5000.0 1.456162e-01 1.758221e-01
</event>
<event>
4 7 1.0 5000.0 7.905138e-03 7.739137e-02
 2 -1 0 0 101   0  0.000000e+00  0.000000e+00  1.895656e+03  1.895656e+03 0.0 0.0 9.0
21 -1 0 0 103 101  0.000000e+00  0.000000e+00 -2.739267e+03  2.739267e+03 0.0 0.0 9.0
22  1 1 2   0   0  1.252146e+03 -2.739456e+02 -2.337901e+03  2.666214e+03 0.0 0.0 9.0
 2  1 1 2 103   0 -1.252146e+03  2.739456e+02  1.494289e+03  1.968709e+03 0.0022 0.0 9.0
#pdf 2 21 2.916393e-01 4.214257e-01 5000.0 2.595419e-01 1.242183e-01
</event>
<event>
4 7 1.0 5000.0 7.905138e-03 7.739137e-02
 2 -1 0 0 101   0  0.000000e+00  0.000000e+00  2.604609e+03  2.604609e+03 0.0 0.0 9.0
21 -1 0 0 103 101  0.000000e+00  0.000000e+00 -2.332584e+03  2.332584e+03 0.0 0.0 9.0
 2  1 1 2 103   0 -8.040481e+02  3.657652e+02  2.440641e+03  2.595575e+03 0.0022 0.0 9.0
22  1 1 2   0   0  8.040481e+02 -3.657652e+02 -2.168617e+03  2.341618e+03 0.0 0.0 9.0
#pdf 2 21 4.007090e-01 3.588591e-01 5000.0 1.419424e-01 1.823314e-01
</event>
<event>
4 7 1.0 5000.0 7.905138e-03 7.739137e-02
 2 -1 0 0 101   0  0.000000e+00  0.000000e+00  4.553546e+03  4.553546e+03 0.0 0.0 9.0
21 -1 0 0 103 101  0.000000e+00  0.000000e+00 -1.436536e+03  1.436536e+03 0.0 0.0 9.0
 2  1 1 2 103   0  1.072741e+03  1.245679e+03 -7.358990e+02  1.801121e+03 0.0022 0.0 9.0
22  1 1 2   0   0 -1.072741e+03 -1.245679e+03  3.852908e+03  4.188961e+03 0.0 0.0 9.0
#pdf 2 21 7.005455e-01 2.210056e-01 5000.0 8.884351e-03 3.530344e-01
</event>
<event>
4 7 1.0 5000.0 7.905138e-03 7.739137e-02
 2 -1 0 0 101   0  0.000000e+00  0.000000e+00  2.726006e+03  2.726006e+03 0.0 0.0 9.0
21 -1 0 0 103 101  0.000000e+00  0.000000e+00 -2.217478e+03  2.217478e+03 0.0 0.0 9.0
22  1 1 2   0   0 -1.371134e+03 -1.963202e+03  8.146312e+02  2.529386e+03 0.0 0.0 9.0
 2  1 1 2 103   0  1.371134e+03  1.963202e+03 -3.061036e+02  2.414098e+03 0.0022 0.0 9.0
#pdf 2 21 4.193855e-01 3.411505e-01 5000.0 1.258968e-01 2.012674e-01
</event>
<event>
4 7 1.0 5000.0 7.905138e-03 7.739137e-02
21 -1 0 0 103 101  0.000000e+00  0.000000e+00  3.430305e+03  3.430305e+03 0.0 0.0 9.0
 2 -1 0 0 101   0  0.000000e+00  0.000000e+00 -1.757452e+03  1.757452e+03 0.0 0.0 9.0
22  1 1 2   0   0  2.449964e+03  4.460193e+01  1.001041e+03  2.646960e+03 0.0 0.0 9.0
 2  1 1 2 103   0 -2.449964e+03 -4.460193e+01  6.718121e+02  2.540796e+03 0.0022 0.0 9.0
#pdf 21 2 5.277392e-01 2.703772e-01 5000.0 1.910645e-03 5.180460e-02
</event>
<event>
4 7 1.0 5000.0 7.905138e-03 7.739137e-02
 2 -1 0 0 101   0  0.000000e+00  0.000000e+00  3.390645e+03  3.390645e+03 0.0 0.0 9.0
21 -1 0 0 103 101  0.000000e+00  0.000000e+00 -1.862501e+03  1.862501e+03 0.0 0.0 9.0
22  1 1 2   0   0  2.513634e+02 -2.494695e+03  9.401894e+02  2.677806e+03 0.0 0.0 9.0
 2  1 1 2 103   0 -2.513634e+02  2.494695e+03  5.879543e+02  2.575340e+03 0.0022 0.0 9.0
#pdf 2 21 5.216377e-01 2.865386e-01 5000.0 5.914097e-02 2.659626e-01
</event>
<event>
4 7 1.0 5000.0 7.905138e-03 7.739137e-02
 2 -1 0 0 101   0  0.000000e+00  0.000000e+00  2.850656e+03  2.850656e+03 0.0 0.0 9.0
21 -1 0 0 103 101  0.000000e+00  0.000000e+00 -2.066997e+03  2.066997e+03 0.0 0.0 9.0
 2  1 1 2 103   0  1.271189e+03  2.007821e+03 -1.095837e+02  2.378923e+03 0.0022 0.0 9.0
22  1 1 2   0   0 -1.271189e+03 -2.007821e+03  8.932427e+02  2.538730e+03 0.0 0.0 9.0
#pdf 2 21 4.385624e-01 3.179995e-01 5000.0 1.107232e-01 2.275882e-01
</event>
<event>
4 7 1.0 5000.0 7.905138e-03 7.739137e-02
 2 -1 0 0 101   0  0.000000e+00  0.000000e+00  1.300290e+03  1.300290e+03 0.0 0.0 9.0
21 -1 0 0 103 101  0.000000e+00  0.000000e+00 -4.786224e+03  4.786224e+03 0.0 0.0 9.0
22  1 1 2   0   0  1.993151e+03 -1.312389e+02 -3.566129e+03  4.087438e+03 0.0 0.0 9.0
 2  1 1 2 103   0 -1.993151e+03  1.312389e+02  8.019493e+01  1.999076e+03 0.0022 0.0 9.0
#pdf 2 21 2.000447e-01 7.363422e-01 5000.0 3.819655e-01 5.276506e-03
</event>
<event>
4 7 1.0 5000.0 7.905138e-03 7.739137e-02
 2 -1 0 0 101   0  0.000000e+00  0.000000e+00  1.187566e+03  1.187566e+03 0.0 0.0 9.0
21 -1 0 0 103 101  0.000000e+00  0.000000e+00 -5.222744e+03  5.222744e+03 0.0 0.0 9.0
 2  1 1 2 103   0 -9.679417e+02  1.011146e+03  6.334041e+02  1.536401e+03 0.0022 0.0 9.0
22  1 1 2   0   0  9.679417e+02 -1.011146e+03 -4.668582e+03  4.873909e+03 0.0 0.0 9.0
#pdf 2 21 1.827024e-01 8.034991e-01 5000.0 4.057513e-01 1.584316e-03
</event>
<event>
4 7 1.0 5000.0 7.905138e-03 7.739137e-02
 2 -1 0 0 101   0  0.000000e+00  0.000000e+00  1.840690e+03  1.840690e+03 0.0 0.0 9.0
21 -1 0 0 103 101  0.000000e+00  0.000000e+00 -3.203882e+03  3.203882e+03 0.0 0.0 9.0
 2  1 1 2 103   0 -1.948273e+03  3.709940e+02 -2.137158e+03  2.915622e+03 0.0022 0.0 9.0
22  1 1 2   0   0  1.948273e+03 -3.709940e+02  7.739660e+02  2.128950e+03 0.0 0.0 9.0
#pdf 2 21 2.831830e-01 4.929049e-01 5000.0 2.702184e-01 7.447566e-02
</event>
<event>
4 7 1.0 5000.0 7.905138e-03 7.739137e-02
 2 -1 0 0 101   0  0.000000e+00  0.000000e+00  1.219888e+03  1.219888e+03 0.0 0.0 9.0
21 -1 0 0 103 101  0.000000e+00  0.000000e+00 -4.892307e+03  4.892307e+03 0.0 0.0 9.0
 2  1 1 2 103   0  1.520252e+02 -9.102617e+02 -4.665853e+03  4.756246e+03 0.0022 0.0 9.0
22  1 1 2   0   0 -1.520252e+02  9.102617e+02  9.934340e+02  1.355950e+03 0.0 0.0 9.0
#pdf 2 21 1.876751e-01 7.526627e-01 5000.0 3.989721e-01 4.060688e-03
</event>
<event>
4 7 1.0 5000.0 7.905138e-03 7.739137e-02
 2 -1 0 0 101   0  0.000000e+00  0.000000e+00  1.736138e+03  1.736138e+03 0.0 0.0 9.0
21 -1 0 0 103 101  0.000000e+00  0.000000e+00 -3.612743e+03  3.612743e+03 0.0 0.0 9.0
 2  1 1 2 103   0  9.575428e+02 -1.057528e+03 -3.136415e+03  3.445628e+03 0.0022 0.0 9.0
22  1 1 2   0   0 -9.575428e+02  1.057528e+03  1.259810e+03  1.903253e+03 0.0 0.0 9.0
#pdf 2 21 2.670981e-01 5.558067e-01 5000.0 2.909778e-01 4.400963e-02
</event>
<event>
4 7 1.0 5000.0 7.905138e-03 7.739137e-02
21 -1 0 0 103 101  0.000000e+00  0.000000e+00  4.815439e+03  4.815439e+03 0.0 0.0 9.0
 2 -1 0 0 101   0  0.000000e+00  0.000000e+00 -1.316248e+03  1.316248e+03 0.0 0.0 9.0
 2  1 1 2 103   0  1.024574e+03  7.731278e+02  4.387069e+03  4.570980e+03 0.0022 0.0 9.0
22  1 1 2   0   0 -1.024574e+03 -7.731278e+02 -8.878786e+02  1.560707e+03 0.0 0.0 9.0
#pdf 21 2 7.408367e-01 2.024997e-01 5000.0 4.539000e-05 1.217605e-01
</event>
<event>
4 7 1.0 5000.0 7.905138e-03 7.739137e-02
21 -1 0 0 103 101  0.000000e+00  0.000000e+00  1.382139e+03  1.382139e+03 0.0 0.0 9.0
 2 -1 0 0 101   0  0.000000e+00  0.000000e+00 -4.293371e+03  4.293371e+03 0.0 0.0 9.0
22  1 1 2   0   0 -1.185007e+03  1.232014e+03 -3.477343e+03  3.874792e+03 0.0 0.0 9.0
 2  1 1 2 103   0  1.185007e+03 -1.232014e+03  5.661114e+02  1.800717e+03 0.0022 0.0 9.0
#pdf 21 2 2.126368e-01 6.605185e-01 5000.0 1.068784e-01 2.296828e-04
</event>
<event>
4 7 1.0 5000.0 7.905138e-03 7.739137e-02
21 -1 0 0 103 101  0.000000e+00  0.000000e+00  1.654164e+03  1.654164e+03 0.0 0.0 9.0
 2 -1 0 0 101   0  0.000000e+00  0.000000e+00 -3.176688e+03  3.176688e+03 0.0 0.0 9.0
22  1 1 2   0   0  3.544919e+01  2.164575e+03 -1.555475e+03  2.665735e+03 0.0 0.0 9.0
 2  1 1 2 103   0 -3.544919e+01 -2.164575e+03  3.295112e+01  2.165116e+03 0.0022 0.0 9.0
#pdf 21 2 2.544867e-01 4.887212e-01 5000.0 6.312151e-02 3.289092e-03
</event>
<event>
4 7 1.0 5000.0 7.905138e-03 7.739137e-02
 2 -1 0 0 101   0  0.000000e+00  0.000000e+00  1.629941e+03  1.629941e+03 0.0 0.0 9.0
21 -1 0 0 103 101  0.000000e+00  0.000000e+00 -3.757050e+03  3.757050e+03 0.0 0.0 9.0
22  1 1 2   0   0  1.441549e+03  4.633530e+02 -3.193966e+03  3.534711e+03 0.0 0.0 9.0
 2  1 1 2 103   0 -1.441549e+03 -4.633530e+02  1.066857e+03  1.852281e+03 0.0022 0.0 9.0
#pdf 2 21 2.507602e-01 5.780078e-01 5000.0 3.125788e-01 3.581130e-02
</event>
<event>
4 7 1.0 5000.0 7.905138e-03 7.739137e-02
21 -1 0 0 103 101  0.000000e+00  0.000000e+00  3.315979e+03  3.315979e+03 0.0 0.0 9.0
 2 -1 0 0 101   0  0.000000e+00  0.000000e+00 -1.859833e+03  1.859833e+03 0.0 0.0 9.0
 2  1 1 2 103   0 -2.954490e+01 -1.243844e+03  2.967755e+03  3.218011e+03 0.0022 0.0 9.0
22  1 1 2   0   0  2.954490e+01  1.243844e+03 -1.511610e+03  1.957801e+03 0.0 0.0 9.0
#pdf 21 2 5.101506e-01 2.861282e-01 5000.0 2.448305e-03 4.269484e-02
</event>
<event>
4 7 1.0 5000.0 7.905138e-03 7.739137e-02
 2 -1 0 0 101   0  0.000000e+00  0.000000e+00  4.231150e+03  4.231150e+03 0.0 0.0 9.0
21 -1 0 0 103 101  0.000000e+00  0.000000e+00 -1.299378e+03  1.299378e+03 0.0 0.0 9.0
 2  1 1 2 103   0  1.572048e+03 -1.737900e+03  1.372778e+03  2.715906e+03 0.0022 0.0 9.0
22  1 1 2   0   0 -1.572048e+03  1.737900e+03  1.558994e+03  2.814621e+03 0.0 0.0 9.0
#pdf 2 21 6.509461e-01 1.999043e-01 5000.0 1.661057e-02 3.821594e-01
</event>
<event>
4 7 1.0 5000.0 7.905138e-03 7.739137e-02
 2 -1 0 0 101   0  0.000000e+00  0.000000e+00  2.463184e+03  2.463184e+03 0.0 0.0 9.0
21 -1 0 0 103 101  0.000000e+00  0.000000e+00 -2.391430e+03  2.391430e+03 0.0 0.0 9.0
22  1 1 2   0   0 -2.561543e+02  4.341610e+02  2.410251e+03  2.462402e+03 0.0 0.0 9.0
 2  1 1 2 103   0  2.561543e+02 -4.341610e+02 -2.338497e+03  2.392213e+03 0.0022 0.0 9.0
#pdf 2 21 3.789514e-01 3.679123e-01 5000.0 1.621746e-01 1.730648e-01
</event>
<event>
4 7 1.0 5000.0 7.905138e-03 7.739137e-02
21 -1 0 0 103 101  0.000000e+00  0.000000e+00  2.568765e+03  2.568765e+03 0.0 0.0 9.0
 2 -1 0 0 101   0  0.000000e+00  0.000000e+00 -2.783174e+03  2.783174e+03 0.0 0.0 9.0
22  1 1 2   0   0  2.381656e+03  2.734554e+02 -1.292325e+03  2.723448e+03 0.0 0.0 9.0
 2  1 1 2 103   0 -2.381656e+03 -2.734554e+02  1.077916e+03  2.628491e+03 0.0022 0.0 9.0
#pdf 21 2 3.951946e-01 4.281806e-01 5000.0 1.113212e-02 7.319922e-03
</event>
<event>
4 7 1.0 5000.0 7.905138e-03 7.739137e-02
 2 -1 0 0 101   0  0.000000e+00  0.000000e+00  4.049929e+03  4.049929e+03 0.0 0.0 9.0
21 -1 0 0 103 101  0.000000e+00  0.000000e+00 -1.529845e+03  1.529845e+03 0.0 0.0 9.0
 2  1 1 2 103   0  1.089052e+03 -1.312900e+03  3.291812e+03  3.707528e+03 0.0022 0.0 9.0
22  1 1 2   0   0 -1.089052e+03  1.312900e+03 -7.717279e+02  1.872246e+03 0.0 0.0 9.0
#pdf 2 21 6.230660e-01 2.353608e-01 5000.0 2.269570e-02 3.333839e-01
</event>
<event>
4 7 1.0 5000.0 7.905138e-03 7.739137e-02
21 -1 0 0 103 101  0.000000e+00  0.000000e+00  4.178615e+03  4.178615e+03 0.0 0.0 9.0
 2 -1 0 0 101   0  0.000000e+00  0.000000e+00 -1.499524e+03  1.499524e+03 0.0 0.0 9.0
 2  1 1 2 103   0 -7.227981e+02 -2.566215e+02 -1.362963e+03  1.563957e+03 0.0022 0.0 9.0
22  1 1 2   0   0  7.227981e+02  2.566215e+02  4.042055e+03  4.114182e+03 0.0 0.0 9.0
#pdf 21 2 6.428639e-01 2.306960e-01 5000.0 3.140176e-04 8.489700e-02
</event>
<event>
4 7 1.0 5000.0 7.905138e-03 7.739137e-02
 2 -1 0 0 101   0  0.000000e+00  0.000000e+00  3.334445e+03  3.334445e+03 0.0 0.0 9.0
21 -1 0 0 103 101  0.000000e+00  0.000000e+00 -1.835737e+03  1.835737e+03 0.0 0.0 9.0
22  1 1 2   0   0  2.039268e+03 -2.330133e+02  2.192722e+03  3.003488e+03 0.0 0.0 9.0
 2  1 1 2 103   0 -2.039268e+03  2.330133e+02 -6.940141e+02  2.166694e+03 0.0022 0.0 9.0
#pdf 2 21 5.129916e-01 2.824210e-01 5000.0 6.349260e-02 2.711873e-01
</event>
<event>
4 7 1.0 5000.0 7.905138e-03 7.739137e-02
21 -1 0 0 103 101  0.000000e+00  0.000000e+00  1.220542e+03  1.220542e+03 0.0 0.0 9.0
 2 -1 0 0 101   0  0.000000e+00  0.000000e+00 -5.040684e+03  5.040684e+03 0.0 0.0 9.0
 2  1 1 2 103   0 -1.331768e+03  1.805733e+03 -3.244657e+03  3.944880e+03 0.0022 0.0 9.0
22  1 1 2   0   0  1.331768e+03 -1.805733e+03 -5.754851e+02  2.316347e+03 0.0 0.0 9.0
#pdf 21 2 1.877757e-01 7.754899e-01 5000.0 1.478511e-01 1.971741e-05
</event>
<event>
4 7 1.0 5000.0 7.905138e-03 7.739137e-02
 2 -1 0 0 101   0  0.000000e+00  0.000000e+00  2.271249e+03  2.271249e+03 0.0 0.0 9.0
21 -1 0 0 103 101  0.000000e+00  0.000000e+00 -2.826453e+03  2.826453e+03 0.0 0.0 9.0
22  1 1 2   0   0 -1.760991e+03  1.364983e+03  9.359794e+02  2.416676e+03 0.0 0.0 9.0
 2  1 1 2 103   0  1.760991e+03 -1.364983e+03 -1.491184e+03  2.681026e+03 0.0022 0.0 9.0
#pdf 2 21 3.494229e-01 4.348390e-01 5000.0 1.922863e-01 1.135679e-01
</event>
<event>
4 7 1.0 5000.0 7.905138e-03 7.739137e-02
21 -1 0 0 103 101  0.000000e+00  0.000000e+00  3.673840e+03  3.673840e+03 0.0 0.0 9.0
 2 -1 0 0 101   0  0.000000e+00  0.000000e+00 -1.698032e+03  1.698032e+03 0.0 0.0 9.0
 2  1 1 2 103   0  1.126200e+03 -1.354317e+03 -9.164011e+02  1.985520e+03 0.0022 0.0 9.0
22  1 1 2   0   0 -1.126200e+03  1.354317e+03  2.892209e+03  3.386351e+03 0.0 0.0 9.0
#pdf 21 2 5.652061e-01 2.612357e-01 5000.0 1.103075e-03 5.800463e-02
</event>
<event>
4 7 1.0 5000.0 7.905138e-03 7.739137e-02
21 -1 0 0 103 101  0.000000e+00  0.000000e+00  1.803563e+03  1.803563e+03 0.0 0.0 9.0
 2 -1 0 0 101   0  0.000000e+00  0.000000e+00 -3.414266e+03  3.414266e+03 0.0 0.0 9.0
 2  1 1 2 103   0  1.786891e+03 -4.770982e+02 -2.544762e+03  3.145857e+03 0.0022 0.0 9.0
22  1 1 2   0   0 -1.786891e+03  4.770982e+02  9.340593e+02  2.071972e+03 0.0 0.0 9.0
#pdf 21 2 2.774713e-01 5.252717e-01 5000.0 4.747968e-02 1.978633e-03
</event>
<event>
4 7 1.0 5000.0 7.905138e-03 7.739137e-02
 2 -1 0 0 101   0  0.000000e+00  0.000000e+00  2.033906e+03  2.033906e+03 0.0 0.0 9.0
21 -1 0 0 103 101  0.000000e+00  0.000000e+00 -3.115269e+03  3.115269e+03 0.0 0.0 9.0
22  1 1 2   0   0  1.194972e+03  4.426450e+02 -2.760971e+03  3.040864e+03 0.0 0.0 9.0
 2  1 1 2 103   0 -1.194972e+03 -4.426450e+02  1.679608e+03  2.108311e+03 0.0022 0.0 9.0
#pdf 2 21 3.129086e-01 4.792721e-01 5000.0 2.335955e-01 8.264890e-02
</event>
<event>
4 7 1.0 5000.0 7.905138e-03 7.739137e-02
21 -1 0 0 103 101  0.000000e+00  0.000000e+00  3.251764e+03  3.251764e+03 0.0 0.0 9.0
 2 -1 0 0 101   0  0.000000e+00  0.000000e+00 -1.911787e+03  1.911787e+03 0.0 0.0 9.0
22  1 1 2   0   0 -1.341827e+03 -1.281338e+02 -1.501981e+03  2.018134e+03 0.0 0.0 9.0
 2  1 1 2 103   0  1.341827e+03  1.281338e+02  2.841959e+03  3.145417e+03 0.0022 0.0 9.0
#pdf 21 2 5.002714e-01 2.941211e-01 5000.0 2.807770e-03 3.874850e-02
</event>
<event>
4 7 1.0 5000.0 7.905138e-03 7.739137e-02
 2 -1 0 0 101   0  0.000000e+00  0.000000e+00  4.122532e+03  4.122532e+03 0.0 0.0 9.0
21 -1 0 0 103 101  0.000000e+00  0.000000e+00 -1.492564e+03  1.492564e+03 0.0 0.0 9.0
22  1 1 2   0   0  9.092869e+02  2.217354e+03  2.039421e+03  3.146856e+03 0.0 0.0 9.0
 2  1 1 2 103   0 -9.092869e+02 -2.217354e+03  5.905464e+02  2.468240e+03 0.0022 0.0 9.0
#pdf 2 21 6.342356e-01 2.296253e-01 5000.0 2.008543e-02 3.412429e-01
</event>
<event>
4 7 1.0 5000.0 7.905138e-03 7.739137e-02
21 -1 0 0 103 101  0.000000e+00  0.000000e+00  2.291429e+03  2.291429e+03 0.0 0.0 9.0
 2 -1 0 0 101   0  0.000000e+00  0.000000e+00 -2.753464e+03  2.753464e+03 0.0 0.0 9.0
22  1 1 2   0   0 -1.570338e+03 -1.342035e+03  1.204121e+03  2.391010e+03 0.0 0.0 9.0
 2  1 1 2 103   0  1.570338e+03  1.342035e+03 -1.666157e+03  2.653884e+03 0.0022 0.0 9.0
#pdf 21 2 3.525275e-01 4.236099e-01 5000.0 1.891885e-02 7.763565e-03
</event>
<event>
4 7 1.0 5000.0 7.905138e-03 7.739137e-02
 2 -1 0 0 101   0  0.000000e+00  0.000000e+00  1.562661e+03  1.562661e+03 0.0 0.0 9.0
21 -1 0 0 103 101  0.000000e+00  0.000000e+00 -3.917441e+03  3.917441e+03 0.0 0.0 9.0
22  1 1 2   0   0  1.691006e+03  1.450595e+03  1.429526e+01  2.227988e+03 0.0 0.0 9.0
 2  1 1 2 103   0 -1.691006e+03 -1.450595e+03 -2.369075e+03  3.252114e+03 0.0022 0.0 9.0
#pdf 2 21 2.404094e-01 6.026833e-01 5000.0 3.265131e-01 2.808981e-02
</event>
<event>
4 7 1.0 5000.0 7.905138e-03 7.739137e-02
 2 -1 0 0 101   0  0.000000e+00  0.000000e+00  3.857589e+03  3.857589e+03 0.0 0.0 9.0
21 -1 0 0 103 101  0.000000e+00  0.000000e+00 -1.664058e+03  1.664058e+03 0.0 0.0 9.0
 2  1 1 2 103   0 -1.435434e+03 -9.795507e+02  3.105807e+03  3.558936e+03 0.0022 0.0 9.0
22  1 1 2   0   0  1.435434e+03  9.795507e+02 -9.122749e+02  1.962711e+03 0.0 0.0 9.0
#pdf 2 21 5.934753e-01 2.560089e-01 5000.0 3.080852e-02 3.055796e-01
</event>
<event>
4 7 1.0 5000.0 7.905138e-03 7.739137e-02
 2 -1 0 0 101   0  0.000000e+00  0.000000e+00  1.551567e+03  1.551567e+03 0.0 0.0 9.0
21 -1 0 0 103 101  0.000000e+00  0.000000e+00 -4.671681e+03  4.671681e+03 0.0 0.0 9.0
22  1 1 2   0   0 -2.641862e+03 -5.163106e+02 -1.503259e+03  3.083148e+03 0.0 0.0 9.0
 2  1 1 2 103   0  2.641862e+03  5.163106e+02 -1.616854e+03  3.140100e+03 0.0022 0.0 9.0
#pdf 2 21 2.387026e-01 7.187202e-01 5000.0 3.288272e-01 6.877232e-03
</event>
<event>
4 7 1.0 5000.0 7.905138e-03 7.739137e-02
21 -1 0 0 103 101  0.000000e+00  0.000000e+00  2.784942e+03  2.784942e+03 0.0 0.0 9.0
 2 -1 0 0 101   0  0.000000e+00  0.000000e+00 -1.579212e+03  1.579212e+03 0.0 0.0 9.0
22  1 1 2   0   0  1.167390e+03  9.790141e+02  2.102320e+03  2.596347e+03 0.0 0.0 9.0
 2  1 1 2 103   0 -1.167390e+03 -9.790141e+02 -8.965903e+02  1.767807e+03 0.0022 0.0 9.0
#pdf 21 2 4.284526e-01 2.429557e-01 5000.0 7.294367e-03 7.284717e-02
</event>
<event>
4 7 1.0 5000.0 7.905138e-03 7.739137e-02
 2 -1 0 0 101   0  0.000000e+00  0.000000e+00  4.515514e+03  4.515514e+03 0.0 0.0 9.0
21 -1 0 0 103 101  0.000000e+00  0.000000e+00 -1.452182e+03  1.452182e+03 0.0 0.0 9.0
22  1 1 2   0   0  1.015887e+03  2.061699e+03  2.847255e+03  3.659165e+03 0.0 0.0 9.0
 2  1 1 2 103   0 -1.015887e+03 -2.061699e+03  2.160774e+02  2.308532e+03 0.0022 0.0 9.0
#pdf 2 21 6.946945e-01 2.234127e-01 5000.0 9.618182e-03 3.497402e-01
</event>
<event>
4 7 1.0 5000.0 7.905138e-03 7.739137e-02
21 -1 0 0 103 101  0.000000e+00  0.000000e+00  2.889195e+03  2.889195e+03 0.0 0.0 9.0
 2 -1 0 0 101   0  0.000000e+00  0.000000e+00 -2.279329e+03  2.279329e+03 0.0 0.0 9.0
22  1 1 2   0   0 -1.897933e+03 -1.620764e+03 -2.962622e+02  2.513323e+03 0.0 0.0 9.0
 2  1 1 2 103   0  1.897933e+03  1.620764e+03  9.061278e+02  2.655201e+03 0.0022 0.0 9.0
#pdf 21 2 4.444915e-01 3.506660e-01 5000.0 5.928304e-03 1.936003e-02
</event>
<event>
4 7 1.0 5000.0 7.905138e-03 7.739137e-02
21 -1 0 0 103 101  0.000000e+00  0.000000e+00  1.780025e+03  1.780025e+03 0.0 0.0 9.0
 2 -1 0 0 101   0  0.000000e+00  0.000000e+00 -3.024085e+03  3.024085e+03 0.0 0.0 9.0
 2  1 1 2 103   0 -6.308039e+02 -5.762786e+02 -2.855276e+03  2.980371e+03 0.0022 0.0 9.0
22  1 1 2   0   0  6.308039e+02  5.762786e+02  1.611216e+03  1.823740e+03 0.0 0.0 9.0
#pdf 21 2 2.738500e-01 4.652439e-01 5000.0 4.964006e-02 4.510904e-03
</event>
<event>
4 7 1.0 5000.0 7.905138e-03 7.739137e-02
 2 -1 0 0 101   0  0.000000e+00  0.000000e+00  1.450496e+03  1.450496e+03 0.0 0.0 9.0
21 -1 0 0 103 101  0.000000e+00  0.000000e+00 -4.476689e+03  4.476689e+03 0.0 0.0 9.0
 2  1 1 2 103   0  1.380669e+03  2.140797e+02  9.653175e+02  1.698210e+03 0.0022 0.0 9.0
22  1 1 2   0   0 -1.380669e+03 -2.140797e+02 -3.991510e+03  4.228975e+03 0.0 0.0 9.0
#pdf 2 21 2.231532e-01 6.887213e-01 5000.0 3.500951e-01 1.041309e-02
</event>
<event>
4 7 1.0 5000.0 7.905138e-03 7.739137e-02
21 -1 0 0 103 101  0.000000e+00  0.000000e+00  4.871426e+03  4.871426e+03 0.0 0.0 9.0
 2 -1 0 0 101   0  0.000000e+00  0.000000e+00 -1.257289e+03  1.257289e+03 0.0 0.0 9.0
22  1 1 2   0   0 -2.129168e+03 -7.037294e+02  3.103465e+03  3.828849e+03 0.0 0.0 9.0
 2  1 1 2 103   0  2.129168e+03  7.037294e+02  5.106727e+02  2.299865e+03 0.0022 0.0 9.0
#pdf 21 2 7.494502e-01 1.934290e-01 5000.0 3.728310e-05 1.370561e-01
</event>
<event>
4 7 1.0 5000.0 7.905138e-03 7.739137e-02
21 -1 0 0 103 101  0.000000e+00  0.000000e+00  2.892307e+03  2.892307e+03 0.0 0.0 9.0
 2 -1 0 0 101   0  0.000000e+00  0.000000e+00 -2.155301e+03  2.155301e+03 0.0 0.0 9.0
 2  1 1 2 103   0  8.254672e+02  2.201117e+03  1.218734e+03  2.647947e+03 0.0022 0.0 9.0
22  1 1 2   0   0 -8.254672e+02 -2.201117e+03 -4.817277e+02  2.399661e+03 0.0 0.0 9.0
#pdf 21 2 4.449704e-01 3.315848e-01 5000.0 5.890154e-03 2.446656e-02
</event>
<event>
4 7 1.0 5000.0 7.905138e-03 7.739137e-02
 2 -1 0 0 101   0  0.000000e+00  0.000000e+00  1.798637e+03  1.798637e+03 0.0 0.0 9.0
21 -1 0 0 103 101  0.000000e+00  0.000000e+00 -3.438256e+03  3.438256e+03 0.0 0.0 9.0
 2  1 1 2 103   0 -3.972596e+02 -5.756110e+02  1.692950e+03  1.831727e+03 0.0022 0.0 9.0
22  1 1 2   0   0  3.972596e+02  5.756110e+02 -3.332569e+03  3.405167e+03 0.0 0.0 9.0
#pdf 2 21 2.767134e-01 5.289625e-01 5000.0 2.784890e-01 5.562816e-02
</event>
<event>
4 7 1.0 5000.0 7.905138e-03 7.739137e-02
 2 -1 0 0 101   0  0.000000e+00  0.000000e+00  2.294062e+03  2.294062e+03 0.0 0.0 9.0
21 -1 0 0 103 101  0.000000e+00  0.000000e+00 -2.700227e+03  2.700227e+03 0.0 0.0 9.0
 2  1 1 2 103   0  8.171915e+02 -1.219727e+03  1.813312e+03  2.333160e+03 0.0022 0.0 9.0
22  1 1 2   0   0 -8.171915e+02  1.219727e+03 -2.219477e+03  2.661130e+03 0.0 0.0 9.0
#pdf 2 21 3.529327e-01 4.154196e-01 5000.0 1.885467e-01 1.292020e-01
</event>
<event>
4 7 1.0 5000.0 7.905138e-03 7.739137e-02
 2 -1 0 0 101   0  0.000000e+00  0.000000e+00  4.265390e+03  4.265390e+03 0.0 0.0 9.0
21 -1 0 0 103 101  0.000000e+00  0.000000e+00 -1.433364e+03  1.433364e+03 0.0 0.0 9.0
22  1 1 2   0   0 -1.406066e+03  8.398968e+01  3.757845e+03  4.013163e+03 0.0 0.0 9.0
 2  1 1 2 103   0  1.406066e+03 -8.398968e+01 -9.258189e+02  1.685591e+03 0.0022 0.0 9.0
#pdf 2 21 6.562139e-01 2.205175e-01 5000.0 1.561855e-02 3.537030e-01
</event>
<event>
4 7 1.0 5000.0 7.905138e-03 7.739137e-02
21 -1 0 0 103 101  0.000000e+00  0.000000e+00  4.164403e+03  4.164403e+03 0.0 0.0 9.0
 2 -1 0 0 101   0  0.000000e+00  0.000000e+00 -1.509184e+03  1.509184e+03 0.0 0.0 9.0
22  1 1 2   0   0 -2.210827e+02  2.231816e+03  5.996714e+01  2.243541e+03 0.0 0.0 9.0
 2  1 1 2 103   0  2.210827e+02 -2.231816e+03  2.595252e+03  3.430046e+03 0.0022 0.0 9.0
#pdf 21 2 6.406774e-01 2.321821e-01 5000.0 3.262032e-04 8.333730e-02
</event>
<event>
4 7 1.0 5000.0 7.905138e-03 7.739137e-02
21 -1 0 0 103 101  0.000000e+00  0.000000e+00  2.573453e+03  2.573453e+03 0.0 0.0 9.0
 2 -1 0 0 101   0  0.000000e+00  0.000000e+00 -2.434024e+03  2.434024e+03 0.0 0.0 9.0
22  1 1 2   0   0  4.675180e+02 -1.258928e+03 -2.043064e+03  2.444910e+03 0.0 0.0 9.0
 2  1 1 2 103   0 -4.675180e+02  1.258928e+03  2.182493e+03  2.562567e+03 0.0022 0.0 9.0
#pdf 21 2 3.959158e-01 3.744652e-01 5000.0 1.103173e-02 1.442811e-02
</event>
<event>
4 7 1.0 5000.0 7.905138e-03 7.739137e-02
 2 -1 0 0 101   0  0.000000e+00  0.000000e+00  3.417950e+03  3.417950e+03 0.0 0.0 9.0
21 -1 0 0 103 101  0.000000e+00  0.000000e+00 -1.806188e+03  1.806188e+03 0.0 0.0 9.0
22  1 1 2   0   0  1.656587e+03  1.550783e+03 -2.580756e+02  2.283815e+03 0.0 0.0 9.0
 2  1 1 2 103   0 -1.656587e+03 -1.550783e+03  1.869838e+03  2.940323e+03 0.0022 0.0 9.0
#pdf 2 21 5.258385e-01 2.778751e-01 5000.0 5.710815e-02 2.769953e-01
</event>
<event>
4 7 1.0 5000.0 7.905138e-03 7.739137e-02
 2 -1 0 0 101   0  0.000000e+00  0.000000e+00  2.350012e+03  2.350012e+03 0.0 0.0 9.0
21 -1 0 0 103 101  0.000000e+00  0.000000e+00 -2.575964e+03  2.575964e+03 0.0 0.0 9.0
 2  1 1 2 103   0  1.869481e+03  1.595718e+03 -2.084978e+00  2.457902e+03 0.0022 0.0 9.0
22  1 1 2   0   0 -1.869481e+03 -1.595718e+03 -2.238669e+02  2.468075e+03 0.0 0.0 9.0
#pdf 2 21 3.615403e-01 3.963021e-01 5000.0 1.795587e-01 1.459104e-01
</event>
<event>
4 7 1.0 5000.0 7.905138e-03 7.739137e-02
 2 -1 0 0 101   0  0.000000e+00  0.000000e+00  2.444459e+03  2.444459e+03 0.0 0.0 9.0
21 -1 0 0 103 101  0.000000e+00  0.000000e+00 -2.504149e+03  2.504149e+03 0.0 0.0 9.0
 2  1 1 2 103   0 -1.955008e+03  2.527080e+02  1.465380e+03  2.456269e+03 0.0022 0.0 9.0
22  1 1 2   0   0  1.955008e+03 -2.527080e+02 -1.525069e+03  2.492339e+03 0.0 0.0 9.0
#pdf 2 21 3.760707e-01 3.852536e-01 5000.0 1.649748e-01 1.561446e-01
</event>
<event>
4 7 1.0 5000.0 7.905138e-03 7.739137e-02
21 -1 0 0 103 101  0.000000e+00  0.000000e+00  3.697312e+03  3.697312e+03 0.0 0.0 9.0
 2 -1 0 0 101   0  0.000000e+00  0.000000e+00 -1.681193e+03  1.681193e+03 0.0 0.0 9.0
22  1 1 2   0   0 -3.443663e+02 -2.466800e+03  1.127236e+03  2.733926e+03 0.0 0.0 9.0
 2  1 1 2 103   0  3.443663e+02  2.466800e+03  8.888826e+02  2.644580e+03 0.0022 0.0 9.0
#pdf 21 2 5.688173e-01 2.586451e-01 5000.0 1.043688e-03 5.991664e-02
</event>
<event>
4 7 1.0 5000.0 7.905138e-03 7.739137e-02
 2 -1 0 0 101   0  0.000000e+00  0.000000e+00  3.102747e+03  3.102747e+03 0.0 0.0 9.0
21 -1 0 0 103 101  0.000000e+00  0.000000e+00 -1.994717e+03  1.994717e+03 0.0 0.0 9.0
22  1 1 2   0   0  1.890855e+03 -1.613837e+03  4.552344e+02  2.527260e+03 0.0 0.0 9.0
 2  1 1 2 103   0 -1.890855e+03  1.613837e+03  6.527963e+02  2.570204e+03 0.0022 0.0 9.0
#pdf 2 21 4.773457e-01 3.068795e-01 5000.0 8.385277e-02 2.408161e-01
</event>
<event>
4 7 1.0 5000.0 7.905138e-03 7.739137e-02
 2 -1 0 0 101   0  0.000000e+00  0.000000e+00  2.135333e+03  2.135333e+03 0.0 0.0 9.0
21 -1 0 0 103 101  0.000000e+00  0.000000e+00 -2.767353e+03  2.767353e+03 0.0 0.0 9.0
 2  1 1 2 103   0  2.188643e+03 -1.054523e+03 -4.006508e+02  2.462255e+03 0.0022 0.0 9.0
22  1 1 2   0   0 -2.188643e+03  1.054523e+03 -2.313689e+02  2.440432e+03 0.0 0.0 9.0
#pdf 2 21 3.285128e-01 4.257466e-01 5000.0 2.154180e-01 1.207136e-01
</event>
<event>
4 7 1.0 5000.0 7.905138e-03 7.739137e-02
21 -1 0 0 103 101  0.000000e+00  0.000000e+00  2.085913e+03  2.085913e+03 0.0 0.0 9.0
 2 -1 0 0 101   0  0.000000e+00  0.000000e+00 -2.950592e+03  2.950592e+03 0.0 0.0 9.0
 2  1 1 2 103   0 -1.325949e+03  1.922335e+03 -1.282315e+03  2.664178e+03 0.0022 0.0 9.0
22  1 1 2   0   0  1.325949e+03 -1.922335e+03  4.176366e+02  2.372327e+03 0.0 0.0 9.0
#pdf 21 2 3.209097e-01 4.539372e-01 5000.0 2.788049e-02 5.241229e-03
</event>
<event>
4 7 1.0 5000.0 7.905138e-03 7.739137e-02
21 -1 0 0 103 101  0.000000e+00  0.000000e+00  2.233051e+03  2.233051e+03 0.0 0.0 9.0
 2 -1 0 0 101   0  0.000000e+00  0.000000e+00 -2.812242e+03  2.812242e+03 0.0 0.0 9.0
 2  1 1 2 103   0  1.831690e+03 -4.384983e+02  1.374436e+03  2.331619e+03 0.0022 0.0 9.0
22  1 1 2   0   0 -1.831690e+03  4.384983e+02 -1.953626e+03  2.713674e+03 0.0 0.0 9.0
#pdf 21 2 3.435463e-01 4.326525e-01 5000.0 2.112642e-02 6.912713e-03
</event>
<event>
4 7 1.0 5000.0 7.905138e-03 7.739137e-02
 2 -1 0 0 101   0  0.000000e+00  0.000000e+00  2.567146e+03  2.567146e+03 0.0 0.0 9.0
21 -1 0 0 103 101  0.000000e+00  0.000000e+00 -2.409521e+03  2.409521e+03 0.0 0.0 9.0
 2  1 1 2 103   0 -1.999065e+03  8.079216e+02  1.319029e+03  2.527615e+03 0.0022 0.0 9.0
22  1 1 2   0   0  1.999065e+03 -8.079216e+02 -1.161404e+03  2.449053e+03 0.0 0.0 9.0
#pdf 2 21 3.949456e-01 3.706956e-01 5000.0 1.471451e-01 1.702717e-01
</event>
<event>
4 7 1.0 5000.0 7.905138e-03 7.739137e-02
21 -1 0 0 103 101  0.000000e+00  0.000000e+00  2.285777e+03  2.285777e+03 0.0 0.0 9.0
 2 -1 0 0 101   0  0.000000e+00  0.000000e+00 -2.682312e+03  2.682312e+03 0.0 0.0 9.0
 2  1 1 2 103   0 -2.132805e+03 -1.231461e+03  5.909530e+01  2.463503e+03 0.0022 0.0 9.0
22  1 1 2   0   0  2.132805e+03  1.231461e+03 -4.556295e+02  2.504586e+03 0.0 0.0 9.0
#pdf 21 2 3.516581e-01 4.126633e-01 5000.0 1.912400e-02 8.926050e-03
</event>
<event>
4 7 1.0 5000.0 7.905138e-03 7.739137e-02
 2 -1 0 0 101   0  0.000000e+00  0.000000e+00  3.913691e+03  3.913691e+03 0.0 0.0 9.0
21 -1 0 0 103 101  0.000000e+00  0.000000e+00 -1.627766e+03  1.627766e+03 0.0 0.0 9.0
 2  1 1 2 103   0 -5.589197e+02 -1.707171e+03 -8.034225e+02  1.967819e+03 0.0022 0.0 9.0
22  1 1 2   0   0  5.589197e+02  1.707171e+03  3.089347e+03  3.573638e+03 0.0 0.0 9.0
#pdf 2 21 6.021063e-01 2.504256e-01 5000.0 2.825477e-02 3.130280e-01
</event>
<event>
4 7 1.0 5000.0 7.905138e-03 7.739137e-02
 2 -1 0 0 101   0  0.000000e+00  0.000000e+00  1.398562e+03  1.398562e+03 0.0 0.0 9.0
21 -1 0 0 103 101  0.000000e+00  0.000000e+00 -4.083716e+03  4.083716e+03 0.0 0.0 9.0
22  1 1 2   0   0  1.150086e+03  9.966067e+02 -3.456106e+03  3.776320e+03 0.0 0.0 9.0
 2  1 1 2 103   0 -1.150086e+03 -9.966067e+02  7.709525e+02  1.705958e+03 0.0022 0.0 9.0
#pdf 2 21 2.151634e-01 6.282639e-01 5000.0 3.610584e-01 2.145104e-02
</event>
<event>
4 7 1.0 5000.0 7.905138e-03 7.739137e-02
 2 -1 0 0 101   0  0.000000e+00  0.000000e+00  2.155538e+03  2.155538e+03 0.0 0.0 9.0
21 -1 0 0 103 101  0.000000e+00  0.000000e+00 -2.780211e+03  2.780211e+03 0.0 0.0 9.0
22  1 1 2   0   0 -1.288681e+03  2.462308e+02 -2.395857e+03  2.731567e+03 0.0 0.0 9.0
 2  1 1 2 103   0  1.288681e+03 -2.462308e+02  1.771184e+03  2.204183e+03 0.0022 0.0 9.0
#pdf 2 21 3.316213e-01 4.277248e-01 5000.0 2.118861e-01 1.191323e-01
</event>
<event>
4 7 1.0 5000.0 7.905138e-03 7.739137e-02
21 -1 0 0 103 101  0.000000e+00  0.000000e+00  3.191351e+03  3.191351e+03 0.0 0.0 9.0
 2 -1 0 0 101   0  0.000000e+00  0.000000e+00 -1.986746e+03  1.986746e+03 0.0 0.0 9.0
22  1 1 2   0   0  9.039257e+02 -1.023288e+02 -1.811878e+03  2.027426e+03 0.0 0.0 9.0
 2  1 1 2 103   0 -9.039257e+02  1.023288e+02  3.016484e+03  3.150671e+03 0.0022 0.0 9.0
#pdf 21 2 4.909771e-01 3.056532e-01 5000.0 3.189772e-03 3.364392e-02
</event>
<event>
4 7 1.0 5000.0 7.905138e-03 7.739137e-02
21 -1 0 0 103 101  0.000000e+00  0.000000e+00  4.962507e+03  4.962507e+03 0.0 0.0 9.0
 2 -1 0 0 101   0  0.000000e+00  0.000000e+00 -1.256651e+03  1.256651e+03 0.0 0.0 9.0
22  1 1 2   0   0 -2.142961e+03 -1.097876e+03  2.677524e+03  3.600937e+03 0.0 0.0 9.0
 2  1 1 2 103   0  2.142961e+03  1.097876e+03  1.028332e+03  2.618220e+03 0.0022 0.0 9.0
#pdf 21 2 7.634625e-01 1.933309e-01 5000.0 2.666053e-05 1.372335e-01
</event>
<event>
4 7 1.0 5000.0 7.905138e-03 7.739137e-02
 2 -1 0 0 101   0  0.000000e+00  0.000000e+00  2.920442e+03  2.920442e+03 0.0 0.0 9.0
21 -1 0 0 103 101  0.000000e+00  0.000000e+00 -1.664726e+03  1.664726e+03 0.0 0.0 9.0
 2  1 1 2 103   0 -1.630153e+03 -9.775791e+02 -5.340043e+02  1.974391e+03 0.0022 0.0 9.0
22  1 1 2   0   0  1.630153e+03  9.775791e+02  1.789720e+03  2.610777e+03 0.0 0.0 9.0
#pdf 2 21 4.492987e-01 2.561117e-01 5000.0 1.027635e-01 3.054433e-01
</event>
<event>
4 7 1.0 5000.0 7.905138e-03 7.739137e-02
 2 -1 0 0 101   0  0.000000e+00  0.000000e+00  1.616445e+03  1.616445e+03 0.0 0.0 9.0
21 -1 0 0 103 101  0.000000e+00  0.000000e+00 -3.813805e+03  3.813805e+03 0.0 0.0 9.0
 2  1 1 2 103   0  3.790230e+02  2.185236e+03  1.219118e+02  2.221211e+03 0.0022 0.0 9.0
22  1 1 2   0   0 -3.790230e+02 -2.185236e+03 -2.319271e+03  3.209039e+03 0.0 0.0 9.0
#pdf 2 21 2.486839e-01 5.867392e-01 5000.0 3.153732e-01 3.291944e-02
</event>
<event>
4 7 1.0 5000.0 7.905138e-03 7.739137e-02
21 -1 0 0 103 101  0.000000e+00  0.000000e+00  2.214708e+03  2.214708e+03 0.0 0.0 9.0
 2 -1 0 0 101   0  0.000000e+00  0.000000e+00 -2.632587e+03  2.632587e+03 0.0 0.0 9.0
 2  1 1 2 103   0 -6.210896e+02 -8.795125e+02  1.960414e+03  2.236631e+03 0.0022 0.0 9.0
22  1 1 2   0   0  6.210896e+02  8.795125e+02 -2.378293e+03  2.610665e+03 0.0 0.0 9.0
#pdf 21 2 3.407244e-01 4.050134e-01 5000.0 2.186811e-02 9.837802e-03
</event>
<event>
4 7 1.0 5000.0 7.905138e-03 7.739137e-02
21 -1 0 0 103 101  0.000000e+00  0.000000e+00  2.446076e+03  2.446076e+03 0.0 0.0 9.0
 2 -1 0 0 101   0  0.000000e+00  0.000000e+00 -2.463976e+03  2.463976e+03 0.0 0.0 9.0
 2  1 1 2 103   0  1.350906e+03  1.749382e+03 -1.077502e+03  2.458922e+03 0.0022 0.0 9.0
22  1 1 2   0   0 -1.350906e+03 -1.749382e+03  1.059602e+03  2.451131e+03 0.0 0.0 9.0
#pdf 21 2 3.763194e-01 3.790732e-01 5000.0 1.410425e-02 1.363213e-02
</event>
<event>
4 7 1.0 5000.0 7.905138e-03 7.739137e-02
 2 -1 0 0 101   0  0.000000e+00  0.000000e+00  1.617325e+03  1.617325e+03 0.0 0.0 9.0
21 -1 0 0 103 101  0.000000e+00  0.000000e+00 -3.919689e+03  3.919689e+03 0.0 0.0 9.0
 2  1 1 2 103   0 -1.368817e+03 -1.351226e+03 -2.937744e+03  3.511383e+03 0.0022 0.0 9.0
22  1 1 2   0   0  1.368817e+03  1.351226e+03  6.353797e+02  2.025630e+03 0.0 0.0 9.0
#pdf 2 21 2.488192e-01 6.030290e-01 5000.0 3.151907e-01 2.799129e-02
</event>
<event>
4 7 1.0 5000.0 7.905138e-03 7.739137e-02
21 -1 0 0 103 101  0.000000e+00  0.000000e+00  1.845649e+03  1.845649e+03 0.0 0.0 9.0
 2 -1 0 0 101   0  0.000000e+00  0.000000e+00 -2.946584e+03  2.946584e+03 0.0 0.0 9.0
22  1 1 2   0   0 -3.590728e+02 -1.387841e+03 -2.440398e+03  2.830296e+03 0.0 0.0 9.0
 2  1 1 2 103   0  3.590728e+02  1.387841e+03  1.339463e+03  1.961937e+03 0.0022 0.0 9.0
#pdf 21 2 2.839460e-01 4.533206e-01 5000.0 4.384424e-02 5.283937e-03
</event>
<event>
4 7 1.0 5000.0 7.905138e-03 7.739137e-02
21 -1 0 0 103 101  0.000000e+00  0.000000e+00  1.656348e+03  1.656348e+03 0.0 0.0 9.0
 2 -1 0 0 101   0  0.000000e+00  0.000000e+00 -3.529276e+03  3.529276e+03 0.0 0.0 9.0
22  1 1 2   0   0 -2.169457e+03 -8.732546e+02 -2.783691e+02  2.355123e+03 0.0 0.0 9.0
 2  1 1 2 103   0  2.169457e+03  8.732546e+02 -1.594559e+03  2.830501e+03 0.0022 0.0 9.0
#pdf 21 2 2.548227e-01 5.429655e-01 5000.0 6.285690e-02 1.532679e-03
</event>
<event>
4 7 1.0 5000.0 7.905138e-03 7.739137e-02
21 -1 0 0 103 101  0.000000e+00  0.000000e+00  3.009486e+03  3.009486e+03 0.0 0.0 9.0
 2 -1 0 0 101   0  0.000000e+00  0.000000e+00 -2.109953e+03  2.109953e+03 0.0 0.0 9.0
22  1 1 2   0   0 -1.865966e+03  1.475206e+03 -3.951308e+02  2.411263e+03 0.0 0.0 9.0
 2  1 1 2 103   0  1.865966e+03 -1.475206e+03  1.294664e+03  2.708176e+03 0.0022 0.0 9.0
#pdf 21 2 4.629979e-01 3.246081e-01 5000.0 4.646794e-03 2.664705e-02
</event>
<event>
4 7 1.0 5000.0 7.905138e-03 7.739137e-02
21 -1 0 0 103 101  0.000000e+00  0.000000e+00  1.511952e+03  1.511952e+03 0.0 0.0 9.0
 2 -1 0 0 101   0  0.000000e+00  0.000000e+00 -4.202070e+03  4.202070e+03 0.0 0.0 9.0
22  1 1 2   0   0  3.118680e+02  1.301649e+03  1.075849e+03  1.717267e+03 0.0 0.0 9.0
 2  1 1 2 103   0 -3.118680e+02 -1.301649e+03 -3.765967e+03  3.996756e+03 0.0022 0.0 9.0
#pdf 21 2 2.326081e-01 6.464723e-01 5000.0 8.289670e-02 2.946888e-04
</event>
<event>
4 7 1.0 5000.0 7.905138e-03 7.739137e-02
21 -1 0 0 103 101  0.000000e+00  0.000000e+00  2.533838e+03  2.533838e+03 0.0 0.0 9.0
 2 -1 0 0 101   0  0.000000e+00  0.000000e+00 -2.418816e+03  2.418816e+03 0.0 0.0 9.0
22  1 1 2   0   0 -2.443169e+02 -2.388493e+03 -5.462239e+02  2.462306e+03 0.0 0.0 9.0
 2  1 1 2 103   0  2.443169e+02  2.388493e+03  6.612453e+02  2.490348e+03 0.0022 0.0 9.0
#pdf 21 2 3.898212e-01 3.721256e-01 5000.0 1.191031e-02 1.484315e-02
</event>
<event>
4 7 1.0 5000.0 7.905138e-03 7.739137e-02
 2 -1 0 0 101   0  0.000000e+00  0.000000e+00  1.993831e+03  1.993831e+03 0.0 0.0 9.0
21 -1 0 0 103 101  0.000000e+00  0.000000e+00 -2.788394e+03  2.788394e+03 0.0 0.0 9.0
22  1 1 2   0   0  1.001469e+03  1.428183e+03  1.211567e+03  2.123803e+03 0.0 0.0 9.0
 2  1 1 2 103   0 -1.001469e+03 -1.428183e+03 -2.006130e+03  2.658421e+03 0.0022 0.0 9.0
#pdf 2 21 3.067432e-01 4.289837e-01 5000.0 2.409807e-01 1.181341e-01
</event>
<event>
4 7 1.0 5000.0 7.905138e-03 7.739137e-02
 2 -1 0 0 101   0  0.000000e+00  0.000000e+00  2.988766e+03  2.988766e+03 0.0 0.0 9.0
21 -1 0 0 103 101  0.000000e+00  0.000000e+00 -2.119017e+03  2.119017e+03 0.0 0.0 9.0
22  1 1 2   0   0  1.942449e+03  1.135534e+02 -1.184788e+03  2.278097e+03 0.0 0.0 9.0
 2  1 1 2 103   0 -1.942449e+03 -1.135534e+02  2.054537e+03  2.829686e+03 0.0022 0.0 9.0
#pdf 2 21 4.598102e-01 3.260027e-01 5000.0 9.536407e-02 2.182936e-01
</event>
<event>
4 7 1.0 5000.0 7.905138e-03 7.739137e-02
21 -1 0 0 103 101  0.000000e+00  0.000000e+00  2.195536e+03  2.195536e+03 0.0 0.0 9.0
 2 -1 0 0 101   0  0.000000e+00  0.000000e+00 -2.927120e+03  2.927120e+03 0.0 0.0 9.0
22  1 1 2   0   0  1.098555e+03  4.945320e+02  1.887827e+03  2.239481e+03 0.0 0.0 9.0
 2  1 1 2 103   0 -1.098555e+03 -4.945320e+02 -2.619411e+03  2.883175e+03 0.0022 0.0 9.0
#pdf 21 2 3.377748e-01 4.503262e-01 5000.0 2.267338e-02 5.494133e-03
</event>
<event>
4 7 1.0 5000.0 7.905138e-03 7.739137e-02
21 -1 0 0 103 101  0.000000e+00  0.000000e+00  2.536800e+03  2.536800e+03 0.0 0.0 9.0
 2 -1 0 0 101   0  0.000000e+00  0.000000e+00 -2.524047e+03  2.524047e+03 0.0 0.0 9.0
22  1 1 2   0   0 -1.068972e+03  5.845504e+02  2.224176e+03  2.536012e+03 0.0 0.0 9.0
 2  1 1 2 103   0  1.068972e+03 -5.845504e+02 -2.211423e+03  2.524835e+03 0.0022 0.0 9.0
#pdf 21 2 3.902769e-01 3.883149e-01 5000.0 1.184213e-02 1.213864e-02
</event>
<event>
4 7 1.0 5000.0 7.905138e-03 7.739137e-02
21 -1 0 0 103 101  0.000000e+00  0.000000e+00  2.918478e+03  2.918478e+03 0.0 0.0 9.0
 2 -1 0 0 101   0  0.000000e+00  0.000000e+00 -2.155926e+03  2.155926e+03 0.0 0.0 9.0
22  1 1 2   0   0  3.343845e+02 -1.893776e+03 -1.247757e+03  2.292400e+03 0.0 0.0 9.0
 2  1 1 2 103   0 -3.343845e+02  1.893776e+03  2.010309e+03  2.782004e+03 0.0022 0.0 9.0
#pdf 21 2 4.489967e-01 3.316809e-01 5000.0 5.588675e-03 2.443776e-02
</event>
<event>
4 7 1.0 5000.0 7.905138e-03 7.739137e-02
21 -1 0 0 103 101  0.000000e+00  0.000000e+00  1.326835e+03  1.326835e+03 0.0 0.0 9.0
 2 -1 0 0 101   0  0.000000e+00  0.000000e+00 -4.355854e+03  4.355854e+03 0.0 0.0 9.0
22  1 1 2   0   0  8.461160e+02 -4.292284e+02  1.096207e+03  1.449766e+03 0.0 0.0 9.0
 2  1 1 2 103   0 -8.461160e+02  4.292284e+02 -4.125226e+03  4.232923e+03 0.0022 0.0 9.0
#pdf 21 2 2.041285e-01 6.701314e-01 5000.0 1.191857e-01 1.923655e-04
</event>
<event>
4 7 1.0 5000.0 7.905138e-03 7.739137e-02
 2 -1 0 0 101   0  0.000000e+00  0.000000e+00  2.195569e+03  2.195569e+03 0.0 0.0 9.0
21 -1 0 0 103 101  0.000000e+00  0.000000e+00 -2.819328e+03  2.819328e+03 0.0 0.0 9.0
22  1 1 2   0   0  4.790281e+02 -2.095219e+03  9.511717e+02  2.350349e+03 0.0 0.0 9.0
 2  1 1 2 103   0 -4.790281e+02  2.095219e+03 -1.574930e+03  2.664548e+03 0.0022 0.0 9.0
#pdf 2 21 3.377798e-01 4.337427e-01 5000.0 2.049899e-01 1.144138e-01
</event>
<event>
4 7 1.0 5000.0 7.905138e-03 7.739137e-02
21 -1 0 0 103 101  0.000000e+00  0.000000e+00  2.912616e+03  2.912616e+03 0.0 0.0 9.0
 2 -1 0 0 101   0  0.000000e+00  0.000000e+00 -2.127017e+03  2.127017e+03 0.0 0.0 9.0
 2  1 1 2 103   0 -5.431145e+02 -1.968992e+03 -1.047224e+03  2.295339e+03 0.0022 0.0 9.0
22  1 1 2   0   0  5.431145e+02  1.968992e+03  1.832824e+03  2.744293e+03 0.0 0.0 9.0
#pdf 21 2 4.480948e-01 3.272333e-01 5000.0 5.653457e-03 2.580522e-02
</event>
<event>
4 7 1.0 5000.0 7.905138e-03 7.739137e-02
 2 -1 0 0 101   0  0.000000e+00  0.000000e+00  1.975059e+03  1.975059e+03 0.0 0.0 9.0
21 -1 0 0 103 101  0.000000e+00  0.000000e+00 -2.905184e+03  2.905184e+03 0.0 0.0 9.0
22  1 1 2   0   0  4.394170e+02 -3.194067e+02 -2.841606e+03  2.893067e+03 0.0 0.0 9.0
 2  1 1 2 103   0 -4.394170e+02  3.194067e+02  1.911482e+03  1.987177e+03 0.0022 0.0 9.0
#pdf 2 21 3.038553e-01 4.469513e-01 5000.0 2.444834e-01 1.044591e-01
</event>
<event>
4 7 1.0 5000.0 7.905138e-03 7.739137e-02
21 -1 0 0 103 101  0.000000e+00  0.000000e+00  1.829124e+03  1.829124e+03 0.0 0.0 9.0
 2 -1 0 0 101   0  0.000000e+00  0.000000e+00 -3.491563e+03  3.491563e+03 0.0 0.0 9.0
 2  1 1 2 103   0  1.414187e+03  1.134051e+03  1.022408e+03  2.081181e+03 0.0022 0.0 9.0
22  1 1 2   0   0 -1.414187e+03 -1.134051e+03 -2.684847e+03  3.239506e+03 0.0 0.0 9.0
#pdf 21 2 2.814037e-01 5.371636e-01 5000.0 4.523501e-02 1.667133e-03
</event>
<event>
4 7 1.0 5000.0 7.905138e-03 7.739137e-02
 2 -1 0 0 101   0  0.000000e+00  0.000000e+00  3.355671e+03  3.355671e+03 0.0 0.0 9.0
21 -1 0 0 103 101  0.000000e+00  0.000000e+00 -2.087119e+03  2.087119e+03 0.0 0.0 9.0
22  1 1 2   0   0  1.939175e+03  2.744227e+01 -1.217423e+03  2.289820e+03 0.0 0.0 9.0
 2  1 1 2 103   0 -1.939175e+03 -2.744227e+01  2.485975e+03  3.152971e+03 0.0022 0.0 9.0
#pdf 2 21 5.162571e-01 3.210953e-01 5000.0 6.182240e-02 2.239715e-01
</event>
<event>
4 7 1.0 5000.0 7.905138e-03 7.739137e-02
 2 -1 0 0 101   0  0.000000e+00  0.000000e+00  2.314498e+03  2.314498e+03 0.0 0.0 9.0
21 -1 0 0 103 101  0.000000e+00  0.000000e+00 -2.973964e+03  2.973964e+03 0.0 0.0 9.0
 2  1 1 2 103   0 -7.324632e+02 -1.703455e+03 -2.200397e+03  2.877501e+03 0.0022 0.0 9.0
22  1 1 2   0   0  7.324632e+02  1.703455e+03  1.540932e+03  2.410961e+03 0.0 0.0 9.0
#pdf 2 21 3.560766e-01 4.575329e-01 5000.0 1.852344e-01 9.693819e-02
</event>
<event>
4 7 1.0 5000.0 7.905138e-03 7.739137e-02
21 -1 0 0 103 101  0.000000e+00  0.000000e+00  2.848128e+03  2.848128e+03 0.0 0.0 9.0
 2 -1 0 0 101   0  0.000000e+00  0.000000e+00 -1.942102e+03  1.942102e+03 0.0 0.0 9.0
22  1 1 2   0   0  1.418660e+03  3.375890e+02  2.332139e+03  2.750534e+03 0.0 0.0 9.0
 2  1 1 2 103   0 -1.418660e+03 -3.375890e+02 -1.426113e+03  2.039696e+03 0.0022 0.0 9.0
#pdf 21 2 4.381735e-01 2.987849e-01 5000.0 6.441030e-03 3.656952e-02
</event>
<event>
4 7 1.0 5000.0 7.905138e-03 7.739137e-02
21 -1 0 0 103 101  0.000000e+00  0.000000e+00  2.098341e+03  2.098341e+03 0.0 0.0 9.0
 2 -1 0 0 101   0  0.000000e+00  0.000000e+00 -2.349912e+03  2.349912e+03 0.0 0.0 9.0
22  1 1 2   0   0  1.131052e+03  1.889515e+03 -4.115043e+02  2.240285e+03 0.0 0.0 9.0
 2  1 1 2 103   0 -1.131052e+03 -1.889515e+03  1.599330e+02  2.207968e+03 0.0022 0.0 9.0
#pdf 21 2 3.228217e-01 3.615250e-01 5000.0 2.723565e-02 1.692949e-02
</event>
<event>
4 7 1.0 5000.0 7.905138e-03 7.739137e-02
 2 -1 0 0 101   0  0.000000e+00  0.000000e+00  2.448601e+03  2.448601e+03 0.0 0.0 9.0
21 -1 0 0 103 101  0.000000e+00  0.000000e+00 -2.425496e+03  2.425496e+03 0.0 0.0 9.0
 2  1 1 2 103   0 -1.885506e+03  8.846042e+02 -1.253931e+03  2.431049e+03 0.0022 0.0 9.0
22  1 1 2   0   0  1.885506e+03 -8.846042e+02  1.277037e+03  2.443047e+03 0.0 0.0 9.0
#pdf 2 21 3.767079e-01 3.731532e-01 5000.0 1.643531e-01 1.678368e-01
</event>
<event>
4 7 1.0 5000.0 7.905138e-03 7.739137e-02
 2 -1 0 0 101   0  0.000000e+00  0.000000e+00  2.952507e+03  2.952507e+03 0.0 0.0 9.0
21 -1 0 0 103 101  0.000000e+00  0.000000e+00 -2.311615e+03  2.311615e+03 0.0 0.0 9.0
 2  1 1 2 103   0  1.831423e+02 -2.602939e+03  4.487787e+02  2.647685e+03 0.0022 0.0 9.0
22  1 1 2   0   0 -1.831423e+02  2.602939e+03  1.921136e+02  2.616437e+03 0.0 0.0 9.0
#pdf 2 21 4.542319e-01 3.556331e-01 5000.0 9.925145e-02 1.856997e-01
</event>
<event>
4 7 1.0 5000.0 7.905138e-03 7.739137e-02
21 -1 0 0 103 101  0.000000e+00  0.000000e+00  3.489752e+03  3.489752e+03 0.0 0.0 9.0
 2 -1 0 0 101   0  0.000000e+00  0.000000e+00 -1.796542e+03  1.796542e+03 0.0 0.0 9.0
22  1 1 2   0   0 -9.527334e+02 -1.431221e+02 -1.593052e+03  1.861720e+03 0.0 0.0 9.0
 2  1 1 2 103   0  9.527334e+02  1.431221e+02  3.286262e+03  3.424574e+03 0.0022 0.0 9.0
#pdf 21 2 5.368849e-01 2.763910e-01 5000.0 1.673953e-03 4.811434e-02
</event>
<event>
4 7 1.0 5000.0 7.905138e-03 7.739137e-02
 2 -1 0 0 101   0  0.000000e+00  0.000000e+00  2.109980e+03  2.109980e+03 0.0 0.0 9.0
21 -1 0 0 103 101  0.000000e+00  0.000000e+00 -2.792508e+03  2.792508e+03 0.0 0.0 9.0
22  1 1 2   0   0 -1.227081e+03  1.258353e+03 -2.031931e+03  2.686620e+03 0.0 0.0 9.0
 2  1 1 2 103   0  1.227081e+03 -1.258353e+03  1.349404e+03  2.215868e+03 0.0022 0.0 9.0
#pdf 2 21 3.246123e-01 4.296166e-01 5000.0 2.198950e-01 1.176346e-01
</event>
<event>
4 7 1.0 5000.0 7.905138e-03 7.739137e-02
 2 -1 0 0 101   0  0.000000e+00  0.000000e+00  2.338582e+03  2.338582e+03 0.0 0.0 9.0
21 -1 0 0 103 101  0.000000e+00  0.000000e+00 -2.573095e+03  2.573095e+03 0.0 0.0 9.0
 2  1 1 2 103   0 -2.208274e+03 -9.587348e+02 -5.886966e+02  2.478348e+03 0.0022 0.0 9.0
22  1 1 2   0   0  2.208274e+03  9.587348e+02  3.541832e+02  2.433329e+03 0.0 0.0 9.0
#pdf 2 21 3.597818e-01 3.958608e-01 5000.0 1.813744e-01 1.463115e-01
</event>
<event>
4 7 1.0 5000.0 7.905138e-03 7.739137e-02
 2 -1 0 0 101   0  0.000000e+00  0.000000e+00  2.017584e+03  2.017584e+03 0.0 0.0 9.0
21 -1 0 0 103 101  0.000000e+00  0.000000e+00 -3.592968e+03  3.592968e+03 0.0 0.0 9.0
 2  1 1 2 103   0  1.006911e+03  2.450019e+03 -1.290247e+03  2.946388e+03 0.0022 0.0 9.0
22  1 1 2   0   0 -1.006911e+03 -2.450019e+03 -2.851368e+02  2.664163e+03 0.0 0.0 9.0
#pdf 2 21 3.103975e-01 5.527643e-01 5000.0 2.365885e-01 4.521541e-02
</event>
<event>
4 7 1.0 5000.0 7.905138e-03 7.739137e-02
21 -1 0 0 103 101  0.000000e+00  0.000000e+00  3.385853e+03  3.385853e+03 0.0 0.0 9.0
 2 -1 0 0 101   0  0.000000e+00  0.000000e+00 -1.862271e+03  1.862271e+03 0.0 0.0 9.0
22  1 1 2   0   0 -1.824974e+03 -1.724584e+03  7.885956e+02  2.631844e+03 0.0 0.0 9.0
 2  1 1 2 103   0  1.824974e+03  1.724584e+03  7.349856e+02  2.616280e+03 0.0022 0.0 9.0
#pdf 21 2 5.209004e-01 2.865033e-01 5000.0 2.104679e-03 4.250097e-02
</event>
<event>
4 7 1.0 5000.0 7.905138e-03 7.739137e-02
 2 -1 0 0 101   0  0.000000e+00  0.000000e+00  1.330001e+03  1.330001e+03 0.0 0.0 9.0
21 -1 0 0 103 101  0.000000e+00  0.000000e+00 -4.711328e+03  4.711328e+03 0.0 0.0 9.0
 2  1 1 2 103   0 -1.278944e+03  1.954803e+03 -6.052097e+02  2.413137e+03 0.0022 0.0 9.0
22  1 1 2   0   0  1.278944e+03 -1.954803e+03 -2.776118e+03  3.628193e+03 0.0 0.0 9.0
#pdf 2 21 2.046156e-01 7.248198e-01 5000.0 3.756756e-01 6.286924e-03
</event>
<event>
4 7 1.0 5000.0 7.905138e-03 7.739137e-02
 2 -1 0 0 101   0  0.000000e+00  0.000000e+00  3.285749e+03  3.285749e+03 0.0 0.0 9.0
21 -1 0 0 103 101  0.000000e+00  0.000000e+00 -1.897872e+03  1.897872e+03 0.0 0.0 9.0
 2  1 1 2 103   0 -1.753930e+03 -1.156171e+03  2.095259e+03  2.967004e+03 0.0022 0.0 9.0
22  1 1 2   0   0  1.753930e+03  1.156171e+03 -7.073815e+02  2.216617e+03 0.0 0.0 9.0
#pdf 2 21 5.054999e-01 2.919802e-01 5000.0 6.744487e-02 2.591154e-01
</event>
<event>
4 7 1.0 5000.0 7.905138e-03 7.739137e-02
 2 -1 0 0 101   0  0.000000e+00  0.000000e+00  3.720765e+03  3.720765e+03 0.0 0.0 9.0
21 -1 0 0 103 101  0.000000e+00  0.000000e+00 -1.867204e+03  1.867204e+03 0.0 0.0 9.0
22  1 1 2   0   0  5.413102e+02 -2.140979e+03  2.452105e+03  3.299944e+03 0.0 0.0 9.0
 2  1 1 2 103   0 -5.413102e+02  2.140979e+03 -5.985444e+02  2.288026e+03 0.0022 0.0 9.0
#pdf 2 21 5.724254e-01 2.872622e-01 5000.0 3.775574e-02 2.650478e-01
</event>
<event>
4 7 1.0 5000.0 7.905138e-03 7.739137e-02
 2 -1 0 0 101   0  0.000000e+00  0.000000e+00  4.318858e+03  4.318858e+03 0.0 0.0 9.0
21 -1 0 0 103 101  0.000000e+00  0.000000e+00 -1.421349e+03  1.421349e+03 0.0 0.0 9.0
22  1 1 2   0   0  3.231126e+02  9.580547e+02  4.069001e+03  4.192737e+03 0.0 0.0 9.0
 2  1 1 2 103   0 -3.231126e+02 -9.580547e+02 -1.171493e+03  1.547471e+03 0.0022 0.0 9.0
#pdf 2 21 6.644397e-01 2.186691e-01 5000.0 1.413820e-02 3.562374e-01
</event>
<event>
4 7 1.0 5000.0 7.905138e-03 7.739137e-02
21 -1 0 0 103 101  0.000000e+00  0.000000e+00  3.483692e+03  3.483692e+03 0.0 0.0 9.0
 2 -1 0 0 101   0  0.000000e+00  0.000000e+00 -1.825988e+03  1.825988e+03 0.0 0.0 9.0
 2  1 1 2 103   0  1.335947e+03  1.242946e+03  2.661584e+03  3.227027e+03 0.0022 0.0 9.0
22  1 1 2   0   0 -1.335947e+03 -1.242946e+03 -1.003881e+03  2.082653e+03 0.0 0.0 9.0
#pdf 21 2 5.359526e-01 2.809213e-01 5000.0 1.697061e-03 4.550508e-02
</event>
<event>
4 7 1.0 5000.0 7.905138e-03 7.739137e-02
 2 -1 0 0 101   0  0.000000e+00  0.000000e+00  3.563354e+03  3.563354e+03 0.0 0.0 9.0
21 -1 0 0 103 101  0.000000e+00  0.000000e+00 -1.864039e+03  1.864039e+03 0.0 0.0 9.0
22  1 1 2   0   0  2.130228e+03  3.790903e+02 -6.247059e+02  2.252074e+03 0.0 0.0 9.0
 2  1 1 2 103   0 -2.130228e+03 -3.790903e+02  2.324020e+03  3.175319e+03 0.0022 0.0 9.0
#pdf 2 21 5.482082e-01 2.867753e-01 5000.0 4.709247e-02 2.656633e-01
</event>
<event>
4 7 1.0 5000.0 7.905138e-03 7.739137e-02
21 -1 0 0 103 101  0.000000e+00  0.000000e+00  3.308127e+03  3.308127e+03 0.0 0.0 9.0
 2 -1 0 0 101   0  0.000000e+00  0.000000e+00 -1.906422e+03  1.906422e+03 0.0 0.0 9.0
22  1 1 2   0   0 -7.631033e+01  1.325318e+03 -1.512365e+03  2.012347e+03 0.0 0.0 9.0
 2  1 1 2 103   0  7.631033e+01 -1.325318e+03  2.914070e+03  3.202202e+03 0.0022 0.0 9.0
#pdf 21 2 5.089426e-01 2.932957e-01 5000.0 2.489781e-03 3.914122e-02
</event>
<event>
4 7 1.0 5000.0 7.905138e-03 7.739137e-02
 2 -1 0 0 101   0  0.000000e+00  0.000000e+00  2.724895e+03  2.724895e+03 0.0 0.0 9.0
21 -1 0 0 103 101  0.000000e+00  0.000000e+00 -2.291120e+03  2.291120e+03 0.0 0.0 9.0
 2  1 1 2 103   0 -6.768404e+02 -2.103187e+03  1.388132e+03  2.609294e+03 0.0022 0.0 9.0
22  1 1 2   0   0  6.768404e+02  2.103187e+03 -9.543569e+02  2.406721e+03 0.0 0.0 9.0
#pdf 2 21 4.192146e-01 3.524800e-01 5000.0 1.260381e-01 1.890265e-01
</event>
<event>
4 7 1.0 5000.0 7.905138e-03 7.739137e-02
 2 -1 0 0 101   0  0.000000e+00  0.000000e+00  1.429007e+03  1.429007e+03 0.0 0.0 9.0
21 -1 0 0 103 101  0.000000e+00  0.000000e+00 -4.310369e+03  4.310369e+03 0.0 0.0 9.0
22  1 1 2   0   0  6.220211e+02  1.852041e+03 -3.210413e+03  3.758154e+03 0.0 0.0 9.0
 2  1 1 2 103   0 -6.220211e+02 -1.852041e+03  3.290508e+02  1.981222e+03 0.0022 0.0 9.0
#pdf 2 21 2.198472e-01 6.631337e-01 5000.0 3.546216e-01 1.436721e-02
</event>
<event>
4 7 1.0 5000.0 7.905138e-03 7.739137e-02
 2 -1 0 0 101   0  0.000000e+00  0.000000e+00  2.802215e+03  2.802215e+03 0.0 0.0 9.0
21 -1 0 0 103 101  0.000000e+00  0.000000e+00 -2.190623e+03  2.190623e+03 0.0 0.0 9.0
 2  1 1 2 103   0 -2.006852e+03  7.280101e+02 -9.611803e+02  2.341222e+03 0.0022 0.0 9.0
22  1 1 2   0   0  2.006852e+03 -7.280101e+02  1.572772e+03  2.651616e+03 0.0 0.0 9.0
#pdf 2 21 4.311099e-01 3.370190e-01 5000.0 1.164618e-01 2.058349e-01
</event>
<event>
4 7 1.0 5000.0 7.905138e-03 7.739137e-02
21 -1 0 0 103 101  0.000000e+00  0.000000e+00  4.527919e+03  4.527919e+03 0.0 0.0 9.0
 2 -1 0 0 101   0  0.000000e+00  0.000000e+00 -1.445346e+03  1.445346e+03 0.0 0.0 9.0
 2  1 1 2 103   0 -2.021855e+03 -6.789828e+02  3.190482e+03  3.837719e+03 0.0022 0.0 9.0
22  1 1 2   0   0  2.021855e+03  6.789828e+02 -1.079080e+02  2.135546e+03 0.0 0.0 9.0
#pdf 21 2 6.966030e-01 2.223609e-01 5000.0 1.158529e-04 9.437873e-02
</event>
<event>
4 7 1.0 5000.0 7.905138e-03 7.739137e-02
 2 -1 0 0 101   0  0.000000e+00  0.000000e+00  3.644372e+03  3.644372e+03 0.0 0.0 9.0
21 -1 0 0 103 101  0.000000e+00  0.000000e+00 -1.679910e+03  1.679910e+03 0.0 0.0 9.0
 2  1 1 2 103   0  2.442274e+03 -1.378152e+01  5.554808e+02  2.504686e+03 0.0022 0.0 9.0
22  1 1 2   0   0 -2.442274e+03  1.378152e+01  1.408981e+03  2.819596e+03 0.0 0.0 9.0
#pdf 2 21 5.606726e-01 2.584476e-01 5000.0 4.211612e-02 3.023520e-01
</event>
<event>
4 7 1.0 5000.0 7.905138e-03 7.739137e-02
21 -1 0 0 103 101  0.000000e+00  0.000000e+00  1.490689e+03  1.490689e+03 0.0 0.0 9.0
 2 -1 0 0 101   0  0.000000e+00  0.000000e+00 -4.333297e+03  4.333297e+03 0.0 0.0 9.0
 2  1 1 2 103   0 -1.618794e+03  7.848126e+01 -3.664431e+03  4.006833e+03 0.0022 0.0 9.0
22  1 1 2   0   0  1.618794e+03 -7.848126e+01  8.218225e+02  1.817153e+03 0.0 0.0 9.0
#pdf 21 2 2.293367e-01 6.666611e-01 5000.0 8.635669e-02 2.048612e-04
</event>
<event>
4 7 1.0 5000.0 7.905138e-03 7.739137e-02
 2 -1 0 0 101   0  0.000000e+00  0.000000e+00  2.527513e+03  2.527513e+03 0.0 0.0 9.0
21 -1 0 0 103 101  0.000000e+00  0.000000e+00 -2.433846e+03  2.433846e+03 0.0 0.0 9.0
 2  1 1 2 103   0 -9.022696e+02 -1.936688e+03 -1.213045e+03  2.456894e+03 0.0022 0.0 9.0
22  1 1 2   0   0  9.022696e+02  1.936688e+03  1.306711e+03  2.504465e+03 0.0 0.0 9.0
#pdf 2 21 3.888481e-01 3.744379e-01 5000.0 1.527683e-01 1.665733e-01
</event>
<event>
4 7 1.0 5000.0 7.905138e-03 7.739137e-02
 2 -1 0 0 101   0  0.000000e+00  0.000000e+00  3.560258e+03  3.560258e+03 0.0 0.0 9.0
21 -1 0 0 103 101  0.000000e+00  0.000000e+00 -1.784061e+03  1.784061e+03 0.0 0.0 9.0
 2  1 1 2 103   0 -1.093819e+03 -2.128692e+03  1.725610e+03  2.950508e+03 0.0022 0.0 9.0
22  1 1 2   0   0  1.093819e+03  2.128692e+03  5.058775e+01  2.393810e+03 0.0 0.0 9.0
#pdf 2 21 5.477320e-01 2.744709e-01 5000.0 4.729256e-02 2.813826e-01
</event>
<event>
4 7 1.0 5000.0 7.905138e-03 7.739137e-02
 2 -1 0 0 101   0  0.000000e+00  0.000000e+00  2.399103e+03  2.399103e+03 0.0 0.0 9.0
21 -1 0 0 103 101  0.000000e+00  0.000000e+00 -2.615373e+03  2.615373e+03 0.0 0.0 9.0
22  1 1 2   0   0  3.546384e+02  2.362501e+03 -8.620758e+02  2.539755e+03 0.0 0.0 9.0
 2  1 1 2 103   0 -3.546384e+02 -2.362501e+03  6.458064e+02  2.474721e+03 0.0022 0.0 9.0
#pdf 2 21 3.690928e-01 4.023650e-01 5000.0 1.718763e-01 1.404688e-01
</event>
<event>
4 7 1.0 5000.0 7.905138e-03 7.739137e-02
21 -1 0 0 103 101  0.000000e+00  0.000000e+00  2.150608e+03  2.150608e+03 0.0 0.0 9.0
 2 -1 0 0 101   0  0.000000e+00  0.000000e+00 -2.624495e+03  2.624495e+03 0.0 0.0 9.0
22  1 1 2   0   0  1.940291e+03  4.075935e+01 -1.614096e+03  2.524222e+03 0.0 0.0 9.0
 2  1 1 2 103   0 -1.940291e+03 -4.075935e+01  1.140209e+03  2.250881e+03 0.0022 0.0 9.0
#pdf 21 2 3.308628e-01 4.037685e-01 5000.0 2.468403e-02 9.993807e-03
</event>
<event>
4 7 1.0 5000.0 7.905138e-03 7.739137e-02
21 -1 0 0 103 101  0.000000e+00  0.000000e+00  2.838662e+03  2.838662e+03 0.0 0.0 9.0
 2 -1 0 0 101   0  0.000000e+00  0.000000e+00 -2.189172e+03  2.189172e+03 0.0 0.0 9.0
22  1 1 2   0   0 -7.917252e+01  1.424058e+03  2.386552e+03  2.780259e+03 0.0 0.0 9.0
 2  1 1 2 103   0  7.917252e+01 -1.424058e+03 -1.737062e+03  2.247575e+03 0.0022 0.0 9.0
#pdf 21 2 4.367173e-01 3.367957e-01 5000.0 6.562751e-03 2.294812e-02
</event>
<event>
4 7 1.0 5000.0 7.905138e-03 7.739137e-02
21 -1 0 0 103 101  0.000000e+00  0.000000e+00  1.901007e+03  1.901007e+03 0.0 0.0 9.0
 2 -1 0 0 101   0  0.000000e+00  0.000000e+00 -3.347272e+03  3.347272e+03 0.0 0.0 9.0
22  1 1 2   0   0  1.782904e+03 -1.385295e+03  4.470765e+02  2.301666e+03 0.0 0.0 9.0
 2  1 1 2 103   0 -1.782904e+03  1.385295e+03 -1.893341e+03  2.946613e+03 0.0022 0.0 9.0
#pdf 21 2 2.924626e-01 5.149648e-01 5000.0 3.954039e-02 2.288926e-03
</event>
<event>
4 7 1.0 5000.0 7.905138e-03 7.739137e-02
 2 -1 0 0 101   0  0.000000e+00  0.000000e+00  2.853829e+03  2.853829e+03 0.0 0.0 9.0
21 -1 0 0 103 101  0.000000e+00  0.000000e+00 -2.154663e+03  2.154663e+03 0.0 0.0 9.0
22  1 1 2   0   0  4.697625e+02 -1.928703e+03 -1.151202e+03  2.294742e+03 0.0 0.0 9.0
 2  1 1 2 103   0 -4.697625e+02  1.928703e+03  1.850368e+03  2.713750e+03 0.0022 0.0 9.0
#pdf 2 21 4.390506e-01 3.314866e-01 5000.0 1.103532e-01 2.120385e-01
</event>
<event>
4 7 1.0 5000.0 7.905138e-03 7.739137e-02
21 -1 0 0 103 101  0.000000e+00  0.000000e+00  3.158849e+03  3.158849e+03 0.0 0.0 9.0
 2 -1 0 0 101   0  0.000000e+00  0.000000e+00 -1.721262e+03  1.721262e+03 0.0 0.0 9.0
 2  1 1 2 103   0  2.241960e+03 -6.753079e+01  1.385776e+03  2.636536e+03 0.0022 0.0 9.0
22  1 1 2   0   0 -2.241960e+03  6.753079e+01  5.181075e+01  2.243575e+03 0.0 0.0 9.0
#pdf 21 2 4.859768e-01 2.648095e-01 5000.0 3.413912e-03 5.548585e-02
</event>
<event>
4 7 1.0 5000.0 7.905138e-03 7.739137e-02
 2 -1 0 0 101   0  0.000000e+00  0.000000e+00  2.456992e+03  2.456992e+03 0.0 0.0 9.0
21 -1 0 0 103 101  0.000000e+00  0.000000e+00 -2.434814e+03  2.434814e+03 0.0 0.0 9.0
22  1 1 2   0   0  2.095468e+03  1.259987e+03  7.243494e+01  2.446181e+03 0.0 0.0 9.0
 2  1 1 2 103   0 -2.095468e+03 -1.259987e+03 -5.025736e+01  2.445625e+03 0.0022 0.0 9.0
#pdf 2 21 3.779987e-01 3.745868e-01 5000.0 1.630977e-01 1.664273e-01
</event>
<event>
4 7 1.0 5000.0 7.905138e-03 7.739137e-02
 2 -1 0 0 101   0  0.000000e+00  0.000000e+00  1.427792e+03  1.427792e+03 0.0 0.0 9.0
21 -1 0 0 103 101  0.000000e+00  0.000000e+00 -3.659799e+03  3.659799e+03 0.0 0.0 9.0
 2  1 1 2 103   0 -1.105395e+03 -3.786014e+02 -3.302384e+03  3.502995e+03 0.0022 0.0 9.0
22  1 1 2   0   0  1.105395e+03  3.786014e+02  1.070377e+03  1.584595e+03 0.0 0.0 9.0
#pdf 2 21 2.196603e-01 5.630460e-01 5000.0 3.548779e-01 4.120865e-02
</event>
<event>
4 7 1.0 5000.0 7.905138e-03 7.739137e-02
 2 -1 0 0 101   0  0.000000e+00  0.000000e+00  2.084948e+03  2.084948e+03 0.0 0.0 9.0
21 -1 0 0 103 101  0.000000e+00  0.000000e+00 -3.073397e+03  3.073397e+03 0.0 0.0 9.0
22  1 1 2   0   0  9.264103e+02 -1.144451e+03  1.603747e+03  2.177156e+03 0.0 0.0 9.0
 2  1 1 2 103   0 -9.264103e+02  1.144451e+03 -2.592197e+03  2.981189e+03 0.0022 0.0 9.0
#pdf 2 21 3.207612e-01 4.728303e-01 5000.0 2.243606e-01 8.672311e-02
</event>
<event>
4 7 1.0 5000.0 7.905138e-03 7.739137e-02
 2 -1 0 0 101   0  0.000000e+00  0.000000e+00  2.541449e+03  2.541449e+03 0.0 0.0 9.0
21 -1 0 0 103 101  0.000000e+00  0.000000e+00 -2.448196e+03  2.448196e+03 0.0 0.0 9.0
 2  1 1 2 103   0  2.103274e+03 -6.454199e+02 -1.129009e+03  2.472850e+03 0.0022 0.0 9.0
22  1 1 2   0   0 -2.103274e+03  6.454199e+02  1.222263e+03  2.516794e+03 0.0 0.0 9.0
#pdf 2 21 3.909922e-01 3.766455e-01 5000.0 1.507772e-01 1.644139e-01
</event>
<event>
4 7 1.0 5000.0 7.905138e-03 7.739137e-02
 2 -1 0 0 101   0  0.000000e+00  0.000000e+00  3.530698e+03  3.530698e+03 0.0 0.0 9.0
21 -1 0 0 103 101  0.000000e+00  0.000000e+00 -1.746291e+03  1.746291e+03 0.0 0.0 9.0
22  1 1 2   0   0  8.125312e+02  2.136290e+03 -1.389419e+02  2.289814e+03 0.0 0.0 9.0
 2  1 1 2 103   0 -8.125312e+02 -2.136290e+03  1.923349e+03  2.987175e+03 0.0022 0.0 9.0
#pdf 2 21 5.431843e-01 2.686601e-01 5000.0 4.922275e-02 2.889357e-01
</event>
<event>
4 7 1.0 5000.0 7.905138e-03 7.739137e-02
 2 -1 0 0 101   0  0.000000e+00  0.000000e+00  1.455620e+03  1.455620e+03 0.0 0.0 9.0
21 -1 0 0 103 101  0.000000e+00  0.000000e+00 -4.310262e+03  4.310262e+03 0.0 0.0 9.0
22  1 1 2   0   0 -7.241908e+01 -2.428096e+03 -7.241924e+02  2.534827e+03 0.0 0.0 9.0
 2  1 1 2 103   0  7.241908e+01  2.428096e+03 -2.130450e+03  3.231054e+03 0.0022 0.0 9.0
#pdf 2 21 2.239415e-01 6.631172e-01 5000.0 3.490170e-01 1.437013e-02
</event>
<event>
4 7 1.0 5000.0 7.905138e-03 7.739137e-02
 2 -1 0 0 101   0  0.000000e+00  0.000000e+00  2.518410e+03  2.518410e+03 0.0 0.0 9.0
21 -1 0 0 103 101  0.000000e+00  0.000000e+00 -2.480609e+03  2.480609e+03 0.0 0.0 9.0
 2  1 1 2 103   0  2.879642e+01 -2.054619e+03  1.441932e+03  2.510270e+03 0.0022 0.0 9.0
22  1 1 2   0   0 -2.879642e+01  2.054619e+03 -1.404132e+03  2.488749e+03 0.0 0.0 9.0
#pdf 2 21 3.874477e-01 3.816322e-01 5000.0 1.540781e-01 1.595930e-01
</event>
<event>
4 7 1.0 5000.0 7.905138e-03 7.739137e-02
 2 -1 0 0 101   0  0.000000e+00  0.000000e+00  1.403404e+03  1.403404e+03 0.0 0.0 9.0
21 -1 0 0 103 101  0.000000e+00  0.000000e+00 -4.256689e+03  4.256689e+03 0.0 0.0 9.0
 2  1 1 2 103   0  6.216809e+02 -2.358325e+03 -1.612165e+03  2.923570e+03 0.0022 0.0 9.0
22  1 1 2   0   0 -6.216809e+02  2.358325e+03 -1.241119e+03  2.736524e+03 0.0 0.0 9.0
#pdf 2 21 2.159084e-01 6.548752e-01 5000.0 3.600321e-01 1.586683e-02
</event>
<event>
4 7 1.0 5000.0 7.905138e-03 7.739137e-02
 2 -1 0 0 101   0  0.000000e+00  0.000000e+00  2.533719e+03  2.533719e+03 0.0 0.0 9.0
21 -1 0 0 103 101  0.000000e+00  0.000000e+00 -2.499176e+03  2.499176e+03 0.0 0.0 9.0
22  1 1 2   0   0  5.547873e+02 -1.036380e+02  2.469610e+03  2.533279e+03 0.0 0.0 9.0
 2  1 1 2 103   0 -5.547873e+02  1.036380e+02 -2.435067e+03  2.499616e+03 0.0022 0.0 9.0
#pdf 2 21 3.898029e-01 3.844887e-01 5000.0 1.518794e-01 1.568692e-01
</event>
<event>
4 7 1.0 5000.0 7.905138e-03 7.739137e-02
21 -1 0 0 103 101  0.000000e+00  0.000000e+00  2.851379e+03  2.851379e+03 0.0 0.0 9.0
 2 -1 0 0 101   0  0.000000e+00  0.000000e+00 -2.178430e+03  2.178430e+03 0.0 0.0 9.0
22  1 1 2   0   0 -5.066804e+02 -5.768277e+02  2.729076e+03  2.835015e+03 0.0 0.0 9.0
 2  1 1 2 103   0  5.066804e+02  5.768277e+02 -2.056128e+03  2.194793e+03 0.0022 0.0 9.0
#pdf 21 2 4.386736e-01 3.351431e-01 5000.0 6.399603e-03 2.342020e-02
</event>
<event>
4 7 1.0 5000.0 7.905138e-03 7.739137e-02
 2 -1 0 0 101   0  0.000000e+00  0.000000e+00  2.879251e+03  2.879251e+03 0.0 0.0 9.0
21 -1 0 0 103 101  0.000000e+00  0.000000e+00 -2.339412e+03  2.339412e+03 0.0 0.0 9.0
22  1 1 2   0   0 -1.555916e+03  1.282829e+03 -1.372669e+03  2.439415e+03 0.0 0.0 9.0
 2  1 1 2 103   0  1.555916e+03 -1.282829e+03  1.912508e+03  2.779247e+03 0.0022 0.0 9.0
#pdf 2 21 4.429617e-01 3.599095e-01 5000.0 1.074125e-01 1.812423e-01
</event>
<event>
4 7 1.0 5000.0 7.905138e-03 7.739137e-02
 2 -1 0 0 101   0  0.000000e+00  0.000000e+00  3.186603e+03  3.186603e+03 0.0 0.0 9.0
21 -1 0 0 103 101  0.000000e+00  0.000000e+00 -1.934595e+03  1.934595e+03 0.0 0.0 9.0
22  1 1 2   0   0 -2.479608e+02 -2.270922e+03 -3.771715e+02  2.315347e+03 0.0 0.0 9.0
 2  1 1 2 103   0  2.479608e+02  2.270922e+03  1.629180e+03  2.805851e+03 0.0022 0.0 9.0
#pdf 2 21 4.902466e-01 2.976300e-01 5000.0 7.602318e-02 2.521055e-01
</event>
<event>
4 7 1.0 5000.0 7.905138e-03 7.739137e-02
21 -1 0 0 103 101  0.000000e+00  0.000000e+00  2.178386e+03  2.178386e+03 0.0 0.0 9.0
 2 -1 0 0 101   0  0.000000e+00  0.000000e+00 -2.851563e+03  2.851563e+03 0.0 0.0 9.0
 2  1 1 2 103   0  2.055901e+03  1.012555e+03 -1.325180e+03  2.647282e+03 0.0022 0.0 9.0
22  1 1 2   0   0 -2.055901e+03 -1.012555e+03  6.520022e+02  2.382668e+03 0.0 0.0 9.0
#pdf 21 2 3.351363e-01 4.387021e-01 5000.0 2.342216e-02 6.397251e-03
</event>
<event>
4 7 1.0 5000.0 7.905138e-03 7.739137e-02
21 -1 0 0 103 101  0.000000e+00  0.000000e+00  2.854949e+03  2.854949e+03 0.0 0.0 9.0
 2 -1 0 0 101   0  0.000000e+00  0.000000e+00 -1.809378e+03  1.809378e+03 0.0 0.0 9.0
 2  1 1 2 103   0 -1.167485e+03  1.942499e+03  3.469632e+02  2.292751e+03 0.0022 0.0 9.0
22  1 1 2   0   0  1.167485e+03 -1.942499e+03  6.986071e+02  2.371576e+03 0.0 0.0 9.0
#pdf 21 2 4.392229e-01 2.783659e-01 5000.0 6.354306e-03 4.696013e-02
</event>
<event>
4 7 1.0 5000.0 7.905138e-03 7.739137e-02
21 -1 0 0 103 101  0.000000e+00  0.000000e+00  2.334969e+03  2.334969e+03 0.0 0.0 9.0
 2 -1 0 0 101   0  0.000000e+00  0.000000e+00 -2.655949e+03  2.655949e+03 0.0 0.0 9.0
22  1 1 2   0   0  3.254033e+02  2.468234e+03 -1.012681e+02  2.491650e+03 0.0 0.0 9.0
 2  1 1 2 103   0 -3.254033e+02 -2.468234e+03 -2.197118e+02  2.499268e+03 0.0022 0.0 9.0
#pdf 21 2 3.592260e-01 4.086076e-01 5000.0 1.741274e-02 9.399073e-03
</event>
<event>
4 7 1.0 5000.0 7.905138e-03 7.739137e-02
 2 -1 0 0 101   0  0.000000e+00  0.000000e+00  3.288824e+03  3.288824e+03 0.0 0.0 9.0
21 -1 0 0 103 101  0.000000e+00  0.000000e+00 -1.898506e+03  1.898506e+03 0.0 0.0 9.0
 2  1 1 2 103   0 -9.654138e+00 -2.443444e+03  1.524844e+02  2.448217e+03 0.0022 0.0 9.0
22  1 1 2   0   0  9.654138e+00  2.443444e+03  1.237834e+03  2.739114e+03 0.0 0.0 9.0
#pdf 2 21 5.059730e-01 2.920779e-01 5000.0 6.719028e-02 2.589933e-01
</event>
<event>
4 7 1.0 5000.0 7.905138e-03 7.739137e-02
21 -1 0 0 103 101  0.000000e+00  0.000000e+00  2.158642e+03  2.158642e+03 0.0 0.0 9.0
 2 -1 0 0 101   0  0.000000e+00  0.000000e+00 -2.944485e+03  2.944485e+03 0.0 0.0 9.0
22  1 1 2   0   0  2.135105e+03 -5.000742e+02 -1.651859e+03  2.745431e+03 0.0 0.0 9.0
 2  1 1 2 103   0 -2.135105e+03  5.000742e+02  8.660159e+02  2.357697e+03 0.0022 0.0 9.0
#pdf 21 2 3.320987e-01 4.529977e-01 5000.0 2.431285e-02 5.306383e-03
</event>
<event>
4 7 1.0 5000.0 7.905138e-03 7.739137e-02
21 -1 0 0 103 101  0.000000e+00  0.000000e+00  2.903469e+03  2.903469e+03 0.0 0.0 9.0
 2 -1 0 0 101   0  0.000000e+00  0.000000e+00 -1.683674e+03  1.683674e+03 0.0 0.0 9.0
22  1 1 2   0   0  1.589917e+03 -9.378574e+02 -6.525531e+02  1.957866e+03 0.0 0.0 9.0
 2  1 1 2 103   0 -1.589917e+03  9.378574e+02  1.872347e+03  2.629277e+03 0.0022 0.0 9.0
#pdf 21 2 4.466875e-01 2.590268e-01 5000.0 5.757200e-03 5.963062e-02
</event>
<event>
4 7 1.0 5000.0 7.905138e-03 7.739137e-02
21 -1 0 0 103 101  0.000000e+00  0.000000e+00  4.791140e+03  4.791140e+03 0.0 0.0 9.0
 2 -1 0 0 101   0  0.000000e+00  0.000000e+00 -1.250184e+03  1.250184e+03 0.0 0.0 9.0
 2  1 1 2 103   0 -1.019996e+03  1.928920e+03  4.023844e+02  2.218792e+03 0.0022 0.0 9.0
22  1 1 2   0   0  1.019996e+03 -1.928920e+03  3.138571e+03  3.822532e+03 0.0 0.0 9.0
#pdf 21 2 7.370984e-01 1.923361e-01 5000.0 4.938941e-05 1.390532e-01
</event>
<event>
4 7 1.0 5000.0 7.905138e-03 7.739137e-02
21 -1 0 0 103 101  0.000000e+00  0.000000e+00  2.873068e+03  2.873068e+03 0.0 0.0 9.0
 2 -1 0 0 101   0  0.000000e+00  0.000000e+00 -2.229880e+03  2.229880e+03 0.0 0.0 9.0
 2  1 1 2 103   0  1.332480e+02  6.282311e+02  2.789576e+03  2.862545e+03 0.0022 0.0 9.0
22  1 1 2   0   0 -1.332480e+02 -6.282311e+02 -2.146388e+03  2.240404e+03 0.0 0.0 9.0
#pdf 21 2 4.420105e-01 3.430585e-01 5000.0 6.127254e-03 2.125277e-02
</event>
<event>
4 7 1.0 5000.0 7.905138e-03 7.739137e-02
21 -1 0 0 103 101  0.000000e+00  0.000000e+00  3.488170e+03  3.488170e+03 0.0 0.0 9.0
 2 -1 0 0 101   0  0.000000e+00  0.000000e+00 -1.758755e+03  1.758755e+03 0.0 0.0 9.0
22  1 1 2   0   0 -1.087663e+03  2.224464e+03  9.281194e+02  2.644364e+03 0.0 0.0 9.0
 2  1 1 2 103   0  1.087663e+03 -2.224464e+03  8.012951e+02  2.602562e+03 0.0022 0.0 9.0
#pdf 21 2 5.366415e-01 2.705777e-01 5000.0 1.679941e-03 5.167696e-02
</event>
<event>
4 7 1.0 5000.0 7.905138e-03 7.739137e-02
21 -1 0 0 103 101  0.000000e+00  0.000000e+00  1.820884e+03  1.820884e+03 0.0 0.0 9.0
 2 -1 0 0 101   0  0.000000e+00  0.000000e+00 -3.361868e+03  3.361868e+03 0.0 0.0 9.0
22  1 1 2   0   0  8.376037e+02  2.098927e+03 -1.825423e+03  2.905038e+03 0.0 0.0 9.0
 2  1 1 2 103   0 -8.376037e+02 -2.098927e+03  2.844382e+02  2.277714e+03 0.0022 0.0 9.0
#pdf 21 2 2.801359e-01 5.172105e-01 5000.0 4.594778e-02 2.217546e-03
</event>
<event>
4 7 1.0 5000.0 7.905138e-03 7.739137e-02
 2 -1 0 0 101   0  0.000000e+00  0.000000e+00  2.599290e+03  2.599290e+03 0.0 0.0 9.0
21 -1 0 0 103 101  0.000000e+00  0.000000e+00 -2.428306e+03  2.428306e+03 0.0 0.0 9.0
 2  1 1 2 103   0  1.023680e+02  2.499796e+03 -1.435856e+02  2.506008e+03 0.0022 0.0 9.0
22  1 1 2   0   0 -1.023680e+02 -2.499796e+03  3.145692e+02  2.521589e+03 0.0 0.0 9.0
#pdf 2 21 3.998908e-01 3.735856e-01 5000.0 1.426741e-01 1.674110e-01
</event>
<event>
4 7 1.0 5000.0 7.905138e-03 7.739137e-02
 2 -1 0 0 101   0  0.000000e+00  0.000000e+00  2.050551e+03  2.050551e+03 0.0 0.0 9.0
21 -1 0 0 103 101  0.000000e+00  0.000000e+00 -3.209104e+03  3.209104e+03 0.0 0.0 9.0
 2  1 1 2 103   0 -2.436482e+03 -5.110783e+02  5.499724e+01  2.490115e+03 0.0022 0.0 9.0
22  1 1 2   0   0  2.436482e+03  5.110783e+02 -1.213550e+03  2.769540e+03 0.0 0.0 9.0
#pdf 2 21 3.154694e-01 4.937083e-01 5000.0 2.305638e-01 7.401239e-02
</event>
<event>
4 7 1.0 5000.0 7.905138e-03 7.739137e-02
21 -1 0 0 103 101  0.000000e+00  0.000000e+00  2.134927e+03  2.134927e+03 0.0 0.0 9.0
 2 -1 0 0 101   0  0.000000e+00  0.000000e+00 -3.000397e+03  3.000397e+03 0.0 0.0 9.0
22  1 1 2   0   0 -3.817651e+02  1.026226e+03 -2.747677e+03  2.957805e+03 0.0 0.0 9.0
 2  1 1 2 103   0  3.817651e+02 -1.026226e+03  1.882207e+03  2.177519e+03 0.0022 0.0 9.0
#pdf 21 2 3.284503e-01 4.615995e-01 5000.0 2.542392e-02 4.733691e-03
</event>
<event>
4 7 1.0 5000.0 7.905138e-03 7.739137e-02
21 -1 0 0 103 101  0.000000e+00  0.000000e+00  2.953953e+03  2.953953e+03 0.0 0.0 9.0
 2 -1 0 0 101   0  0.000000e+00  0.000000e+00 -2.112509e+03  2.112509e+03 0.0 0.0 9.0
 2  1 1 2 103   0  1.195590e+02  6.959287e+02  2.850641e+03  2.936795e+03 0.0022 0.0 9.0
22  1 1 2   0   0 -1.195590e+02 -6.959287e+02 -2.009196e+03  2.129667e+03 0.0 0.0 9.0
#pdf 21 2 4.544544e-01 3.250013e-01 5000.0 5.205583e-03 2.651922e-02
</event>
<event>
4 7 1.0 5000.0 7.905138e-03 7.739137e-02
21 -1 0 0 103 101  0.000000e+00  0.000000e+00  3.638835e+03  3.638835e+03 0.0 0.0 9.0
 2 -1 0 0 101   0  0.000000e+00  0.000000e+00 -1.797822e+03  1.797822e+03 0.0 0.0 9.0
 2  1 1 2 103   0  1.004209e+03  1.910319e+03 -5.383527e+02  2.224315e+03 0.0022 0.0 9.0
22  1 1 2   0   0 -1.004209e+03 -1.910319e+03  2.379367e+03  3.212342e+03 0.0 0.0 9.0
#pdf 21 2 5.598208e-01 2.765879e-01 5000.0 1.196499e-03 4.799806e-02
</event>
<event>
4 7 1.0 5000.0 7.905138e-03 7.739137e-02
21 -1 0 0 103 101  0.000000e+00  0.000000e+00  2.316626e+03  2.316626e+03 0.0 0.0 9.0
 2 -1 0 0 101   0  0.000000e+00  0.000000e+00 -2.551941e+03  2.551941e+03 0.0 0.0 9.0
22  1 1 2   0   0  6.464596e+02 -6.142842e+02  2.146988e+03  2.324825e+03 0.0 0.0 9.0
 2  1 1 2 103   0 -6.464596e+02  6.142842e+02 -2.382303e+03  2.543742e+03 0.0022 0.0 9.0
#pdf 21 2 3.564040e-01 3.926063e-01 5000.0 1.802759e-02 1.150014e-02
</event>
<event>
4 7 1.0 5000.0 7.905138e-03 7.739137e-02
21 -1 0 0 103 101  0.000000e+00  0.000000e+00  2.070379e+03  2.070379e+03 0.0 0.0 9.0
 2 -1 0 0 101   0  0.000000e+00  0.000000e+00 -3.061505e+03  3.061505e+03 0.0 0.0 9.0
 2  1 1 2 103   0  2.407673e+03 -7.299775e+02 -5.907263e+02  2.584321e+03 0.0022 0.0 9.0
22  1 1 2   0   0 -2.407673e+03  7.299775e+02 -4.004004e+02  2.547563e+03 0.0 0.0 9.0
#pdf 21 2 3.185198e-01 4.710008e-01 5000.0 2.870916e-02 4.178631e-03
</event>
<event>
4 7 1.0 5000.0 7.905138e-03 7.739137e-02
 2 -1 0 0 101   0  0.000000e+00  0.000000e+00  3.611330e+03  3.611330e+03 0.0 0.0 9.0
21 -1 0 0 103 101  0.000000e+00  0.000000e+00 -1.626111e+03  1.626111e+03 0.0 0.0 9.0
22  1 1 2   0   0 -2.229738e+03 -8.756271e+02  5.970786e+02  2.468797e+03 0.0 0.0 9.0
 2  1 1 2 103   0  2.229738e+03  8.756271e+02  1.388141e+03  2.768644e+03 0.0022 0.0 9.0
#pdf 2 21 5.555893e-01 2.501709e-01 5000.0 4.409514e-02 3.133702e-01
</event>
<event>
4 7 1.0 5000.0 7.905138e-03 7.739137e-02
21 -1 0 0 103 101  0.000000e+00  0.000000e+00  2.356812e+03  2.356812e+03 0.0 0.0 9.0
 2 -1 0 0 101   0  0.000000e+00  0.000000e+00 -2.754402e+03  2.754402e+03 0.0 0.0 9.0
22  1 1 2   0   0  1.303630e+03 -1.139705e+03 -2.073493e+03  2.701435e+03 0.0 0.0 9.0
 2  1 1 2 103   0 -1.303630e+03  1.139705e+03  1.675904e+03  2.409779e+03 0.0022 0.0 9.0
#pdf 21 2 3.625865e-01 4.237541e-01 5000.0 1.671061e-02 7.749224e-03
</event>
<event>
4 7 1.0 5000.0 7.905138e-03 7.739137e-02
21 -1 0 0 103 101  0.000000e+00  0.000000e+00  2.371409e+03  2.371409e+03 0.0 0.0 9.0
 2 -1 0 0 101   0  0.000000e+00  0.000000e+00 -2.669042e+03  2.669042e+03 0.0 0.0 9.0
 2  1 1 2 103   0  1.317664e+02  2.186204e+03  1.091306e+03  2.446998e+03 0.0022 0.0 9.0
22  1 1 2   0   0 -1.317664e+02 -2.186204e+03 -1.388939e+03  2.593453e+03 0.0 0.0 9.0
#pdf 21 2 3.648322e-01 4.106218e-01 5000.0 1.625446e-02 9.160966e-03
</event>
<event>
4 7 1.0 5000.0 7.905138e-03 7.739137e-02
 2 -1 0 0 101   0  0.000000e+00  0.000000e+00  2.739626e+03  2.739626e+03 0.0 0.0 9.0
21 -1 0 0 103 101  0.000000e+00  0.000000e+00 -2.329180e+03  2.329180e+03 0.0 0.0 9.0
 2  1 1 2 103   0 -5.278774e+02  1.015169e+03  2.464722e+03  2.717365e+03 0.0022 0.0 9.0
22  1 1 2   0   0  5.278774e+02 -1.015169e+03 -2.054276e+03  2.351440e+03 0.0 0.0 9.0
#pdf 2 21 4.214809e-01 3.583354e-01 5000.0 1.241731e-01 1.828758e-01
</event>
<event>
4 7 1.0 5000.0 7.905138e-03 7.739137e-02
21 -1 0 0 103 101  0.000000e+00  0.000000e+00  1.081240e+03  1.081240e+03 0.0 0.0 9.0
 2 -1 0 0 101   0  0.000000e+00  0.000000e+00 -4.517893e+03  4.517893e+03 0.0 0.0 9.0
22  1 1 2   0   0  7.432081e+02  1.247895e+03  3.918508e+02  1.504376e+03 0.0 0.0 9.0
 2  1 1 2 103   0 -7.432081e+02 -1.247895e+03 -3.828503e+03  4.094757e+03 0.0022 0.0 9.0
#pdf 21 2 1.663447e-01 6.950604e-01 5000.0 1.973899e-01 1.194741e-04
</event>
<event>
4 7 1.0 5000.0 7.905138e-03 7.739137e-02
21 -1 0 0 103 101  0.000000e+00  0.000000e+00  2.420144e+03  2.420144e+03 0.0 0.0 9.0
 2 -1 0 0 101   0  0.000000e+00  0.000000e+00 -2.528934e+03  2.528934e+03 0.0 0.0 9.0
 2  1 1 2 103   0  2.397189e+02  1.096532e+03 -2.259591e+03  2.523013e+03 0.0022 0.0 9.0
22  1 1 2   0   0 -2.397189e+02 -1.096532e+03  2.150801e+03  2.426065e+03 0.0 0.0 9.0
#pdf 21 2 3.723298e-01 3.890668e-01 5000.0 1.480651e-02 1.202409e-02
</event>
<event>
4 7 1.0 5000.0 7.905138e-03 7.739137e-02
21 -1 0 0 103 101  0.000000e+00  0.000000e+00  2.762280e+03  2.762280e+03 0.0 0.0 9.0
 2 -1 0 0 101   0  0.000000e+00  0.000000e+00 -2.261198e+03  2.261198e+03 0.0 0.0 9.0
 2  1 1 2 103   0  1.700724e+03  6.947528e+02  1.953411e+03  2.681597e+03 0.0022 0.0 9.0
22  1 1 2   0   0 -1.700724e+03 -6.947528e+02 -1.452329e+03  2.341881e+03 0.0 0.0 9.0
#pdf 21 2 4.249661e-01 3.478765e-01 5000.0 7.629548e-03 2.003604e-02
</event>
<event>
4 7 1.0 5000.0 7.905138e-03 7.739137e-02
21 -1 0 0 103 101  0.000000e+00  0.000000e+00  1.384380e+03  1.384380e+03 0.0 0.0 9.0
 2 -1 0 0 101   0  0.000000e+00  0.000000e+00 -4.536034e+03  4.536034e+03 0.0 0.0 9.0
 2  1 1 2 103   0  2.185409e+03  2.099286e+02 -3.002945e+03  3.719914e+03 0.0022 0.0 9.0
22  1 1 2   0   0 -2.185409e+03 -2.099286e+02 -1.487099e+02  2.200500e+03 0.0 0.0 9.0
#pdf 21 2 2.129815e-01 6.978514e-01 5000.0 1.064103e-01 1.129881e-04
</event>
<event>
4 7 1.0 5000.0 7.905138e-03 7.739137e-02
 2 -1 0 0 101   0  0.000000e+00  0.000000e+00  1.668354e+03  1.668354e+03 0.0 0.0 9.0
21 -1 0 0 103 101  0.000000e+00  0.000000e+00 -3.821162e+03  3.821162e+03 0.0 0.0 9.0
 2  1 1 2 103   0  2.104585e+03  1.316854e+03 -1.576540e+03  2.940895e+03 0.0022 0.0 9.0
22  1 1 2   0   0 -2.104585e+03 -1.316854e+03 -5.762678e+02  2.548621e+03 0.0 0.0 9.0
#pdf 2 21 2.566699e-01 5.878711e-01 5000.0 3.047035e-01 3.255749e-02
</event>
<event>
4 7 1.0 5000.0 7.905138e-03 7.739137e-02
 2 -1 0 0 101   0  0.000000e+00  0.000000e+00  3.355467e+03  3.355467e+03 0.0 0.0 9.0
21 -1 0 0 103 101  0.000000e+00  0.000000e+00 -1.791831e+03  1.791831e+03 0.0 0.0 9.0
 2  1 1 2 103   0 -1.845428e+03 -1.195907e+02 -9.081777e+02  2.060266e+03 0.0022 0.0 9.0
22  1 1 2   0   0  1.845428e+03  1.195907e+02  2.471814e+03  3.087033e+03 0.0 0.0 9.0
#pdf 2 21 5.162257e-01 2.756663e-01 5000.0 6.183832e-02 2.798384e-01
</event>
<event>
4 7 1.0 5000.0 7.905138e-03 7.739137e-02
 2 -1 0 0 101   0  0.000000e+00  0.000000e+00  3.823293e+03  3.823293e+03 0.0 0.0 9.0
21 -1 0 0 103 101  0.000000e+00  0.000000e+00 -1.664855e+03  1.664855e+03 0.0 0.0 9.0
 2  1 1 2 103   0  7.789504e+02  5.742034e+02 -1.454970e+03  1.747401e+03 0.0022 0.0 9.0
22  1 1 2   0   0 -7.789504e+02 -5.742034e+02  3.613408e+03  3.740747e+03 0.0 0.0 9.0
#pdf 2 21 5.881990e-01 2.561316e-01 5000.0 3.245318e-02 3.054169e-01
</event>
<event>
4 7 1.0 5000.0 7.905138e-03 7.739137e-02
21 -1 0 0 103 101  0.000000e+00  0.000000e+00  1.890077e+03  1.890077e+03 0.0 0.0 9.0
 2 -1 0 0 101   0  0.000000e+00  0.000000e+00 -3.264878e+03  3.264878e+03 0.0 0.0 9.0
22  1 1 2   0   0 -2.389332e+03  5.890897e+02 -1.039163e+03  2.671290e+03 0.0 0.0 9.0
 2  1 1 2 103   0  2.389332e+03 -5.890897e+02 -3.356379e+02  2.483664e+03 0.0022 0.0 9.0
#pdf 21 2 2.907810e-01 5.022889e-01 5000.0 4.035573e-02 2.730371e-03
</event>
<event>
4 7 1.0 5000.0 7.905138e-03 7.739137e-02
 2 -1 0 0 101   0  0.000000e+00  0.000000e+00  1.871315e+03  1.871315e+03 0.0 0.0 9.0
21 -1 0 0 103 101  0.000000e+00  0.000000e+00 -3.336869e+03  3.336869e+03 0.0 0.0 9.0
 2  1 1 2 103   0 -2.071887e+02 -1.965282e+03 -2.326582e+03  3.052580e+03 0.0022 0.0 9.0
22  1 1 2   0   0  2.071887e+02  1.965282e+03  8.610277e+02  2.155604e+03 0.0 0.0 9.0
#pdf 2 21 2.878946e-01 5.133645e-01 5000.0 2.642493e-01 6.330024e-02
</event>
<event>
4 7 1.0 5000.0 7.905138e-03 7.739137e-02
21 -1 0 0 103 101  0.000000e+00  0.000000e+00  3.156383e+03  3.156383e+03 0.0 0.0 9.0
 2 -1 0 0 101   0  0.000000e+00  0.000000e+00 -1.874098e+03  1.874098e+03 0.0 0.0 9.0
22  1 1 2   0   0 -2.428517e+02  1.679458e+03 -1.160739e+03  2.055936e+03 0.0 0.0 9.0
 2  1 1 2 103   0  2.428517e+02 -1.679458e+03  2.443024e+03  2.974545e+03 0.0022 0.0 9.0
#pdf 21 2 4.855974e-01 2.883228e-01 5000.0 3.431529e-03 4.157455e-02
</event>
<event>
4 7 1.0 5000.0 7.905138e-03 7.739137e-02
21 -1 0 0 103 101  0.000000e+00  0.000000e+00  3.118932e+03  3.118932e+03 0.0 0.0 9.0
 2 -1 0 0 101   0  0.000000e+00  0.000000e+00 -2.005377e+03  2.005377e+03 0.0 0.0 9.0
22  1 1 2   0   0 -2.765400e+02  1.973633e+03 -9.911510e+02  2.225777e+03 0.0 0.0 9.0
 2  1 1 2 103   0  2.765400e+02 -1.973633e+03  2.104706e+03  2.898532e+03 0.0022 0.0 9.0
#pdf 21 2 4.798356e-01 3.085195e-01 5000.0 3.710611e-03 3.248346e-02
</event>
<event>
4 7 1.0 5000.0 7.905138e-03 7.739137e-02
21 -1 0 0 103 101  0.000000e+00  0.000000e+00  2.442466e+03  2.442466e+03 0.0 0.0 9.0
 2 -1 0 0 101   0  0.000000e+00  0.000000e+00 -2.283035e+03  2.283035e+03 0.0 0.0 9.0
22  1 1 2   0   0  5.676912e+02  2.150237e+03 -7.147429e+02  2.335947e+03 0.0 0.0 9.0
 2  1 1 2 103   0 -5.676912e+02 -2.150237e+03  8.741740e+02  2.389555e+03 0.0022 0.0 9.0
#pdf 21 2 3.757641e-01 3.512362e-01 5000.0 1.420076e-02 1.922410e-02
</event>
<event>
4 7 1.0 5000.0 7.905138e-03 7.739137e-02
 2 -1 0 0 101   0  0.000000e+00  0.000000e+00  2.680003e+03  2.680003e+03 0.0 0.0 9.0
21 -1 0 0 103 101  0.000000e+00  0.000000e+00 -2.376810e+03  2.376810e+03 0.0 0.0 9.0
22  1 1 2   0   0  1.947698e+03  1.516257e+03  6.791326e+02  2.560036e+03 0.0 0.0 9.0
 2  1 1 2 103   0 -1.947698e+03 -1.516257e+03 -3.759388e+02  2.496777e+03 0.0022 0.0 9.0
#pdf 2 21 4.123082e-01 3.656630e-01 5000.0 1.318332e-01 1.753419e-01
</event>
<event>
4 7 1.0 5000.0 7.905138e-03 7.739137e-02
 2 -1 0 0 101   0  0.000000e+00  0.000000e+00  3.350116e+03  3.350116e+03 0.0 0.0 9.0
21 -1 0 0 103 101  0.000000e+00  0.000000e+00 -1.879634e+03  1.879634e+03 0.0 0.0 9.0
22  1 1 2   0   0 -7.476558e+02  1.551157e+02  3.226118e+03  3.315250e+03 0.0 0.0 9.0
 2  1 1 2 103   0  7.476558e+02 -1.551157e+02 -1.755636e+03  1.914499e+03 0.0022 0.0 9.0
#pdf 2 21 5.154024e-01 2.891745e-01 5000.0 6.225649e-02 2.626361e-01
</event>
<event>
4 7 1.0 5000.0 7.905138e-03 7.739137e-02
 2 -1 0 0 101   0  0.000000e+00  0.000000e+00  2.154925e+03  2.154925e+03 0.0 0.0 9.0
21 -1 0 0 103 101  0.000000e+00  0.000000e+00 -3.878737e+03  3.878737e+03 0.0 0.0 9.0
22  1 1 2   0   0 -1.619388e+03 -1.019390e+03 -3.123378e+03  3.662931e+03 0.0 0.0 9.0
 2  1 1 2 103   0  1.619388e+03  1.019390e+03  1.399566e+03  2.370730e+03 0.0022 0.0 9.0
#pdf 2 21 3.315269e-01 5.967287e-01 5000.0 2.119929e-01 2.982653e-02
</event>
<event>
4 7 1.0 5000.0 7.905138e-03 7.739137e-02
21 -1 0 0 103 101  0.000000e+00  0.000000e+00  1.575304e+03  1.575304e+03 0.0 0.0 9.0
 2 -1 0 0 101   0  0.000000e+00  0.000000e+00 -4.371711e+03  4.371711e+03 0.0 0.0 9.0
22  1 1 2   0   0  7.767558e+02  3.538397e+02  1.413624e+03  1.651328e+03 0.0 0.0 9.0
 2  1 1 2 103   0 -7.767558e+02 -3.538397e+02 -4.210032e+03  4.295687e+03 0.0022 0.0 9.0
#pdf 21 2 2.423544e-01 6.725710e-01 5000.0 7.340624e-02 1.838661e-04
</event>
<event>
4 7 1.0 5000.0 7.905138e-03 7.739137e-02
21 -1 0 0 103 101  0.000000e+00  0.000000e+00  2.502941e+03  2.502941e+03 0.0 0.0 9.0
 2 -1 0 0 101   0  0.000000e+00  0.000000e+00 -2.465611e+03  2.465611e+03 0.0 0.0 9.0
 2  1 1 2 103   0  5.901601e+02 -1.160232e+03 -2.097251e+03  2.468378e+03 0.0022 0.0 9.0
22  1 1 2   0   0 -5.901601e+02  1.160232e+03  2.134582e+03  2.500173e+03 0.0 0.0 9.0
#pdf 21 2 3.850679e-01 3.793247e-01 5000.0 1.264598e-02 1.358957e-02
</event>
<event>
4 7 1.0 5000.0 7.905138e-03 7.739137e-02
21 -1 0 0 103 101  0.000000e+00  0.000000e+00  2.766120e+03  2.766120e+03 0.0 0.0 9.0
 2 -1 0 0 101   0  0.000000e+00  0.000000e+00 -2.002718e+03  2.002718e+03 0.0 0.0 9.0
22  1 1 2   0   0 -1.703007e+03 -5.287523e+02 -1.174581e+03  2.135288e+03 0.0 0.0 9.0
 2  1 1 2 103   0  1.703007e+03  5.287523e+02  1.937982e+03  2.633550e+03 0.0022 0.0 9.0
#pdf 21 2 4.255569e-01 3.081105e-01 5000.0 7.571780e-03 3.264729e-02
</event>
<event>
4 7 1.0 5000.0 7.905138e-03 7.739137e-02
 2 -1 0 0 101   0  0.000000e+00  0.000000e+00  1.466916e+03  1.466916e+03 0.0 0.0 9.0
21 -1 0 0 103 101  0.000000e+00  0.000000e+00 -3.699615e+03  3.699615e+03 0.0 0.0 9.0
22  1 1 2   0   0 -1.959054e+03 -3.720562e+02  2.192548e+02  2.006089e+03 0.0 0.0 9.0
 2  1 1 2 103   0  1.959054e+03  3.720562e+02 -2.451953e+03  3.160442e+03 0.0022 0.0 9.0
#pdf 2 21 2.256794e-01 5.691715e-01 5000.0 3.466411e-01 3.892690e-02
</event>
<event>
4 7 1.0 5000.0 7.905138e-03 7.739137e-02
21 -1 0 0 103 101  0.000000e+00  0.000000e+00  1.547817e+03  1.547817e+03 0.0 0.0 9.0
 2 -1 0 0 101   0  0.000000e+00  0.000000e+00 -4.415636e+03  4.415636e+03 0.0 0.0 9.0
 2  1 1 2 103   0  2.556596e+03  4.868834e+02 -1.716426e+03  3.117589e+03 0.0022 0.0 9.0
22  1 1 2   0   0 -2.556596e+03 -4.868834e+02 -1.151392e+03  2.845864e+03 0.0 0.0 9.0
#pdf 21 2 2.381257e-01 6.793286e-01 5000.0 7.740753e-02 1.617626e-04
</event>
<event>
4 7 1.0 5000.0 7.905138e-03 7.739137e-02
21 -1 0 0 103 101  0.000000e+00  0.000000e+00  2.269639e+03  2.269639e+03 0.0 0.0 9.0
 2 -1 0 0 101   0  0.000000e+00  0.000000e+00 -2.749158e+03  2.749158e+03 0.0 0.0 9.0
22  1 1 2   0   0  1.162227e+03  1.330997e+03 -2.013453e+03  2.678865e+03 0.0 0.0 9.0
 2  1 1 2 103   0 -1.162227e+03 -1.330997e+03  1.533934e+03  2.339932e+03 0.0022 0.0 9.0
#pdf 21 2 3.491752e-01 4.229474e-01 5000.0 1.971897e-02 7.829760e-03
</event>
<event>
4 7 1.0 5000.0 7.905138e-03 7.739137e-02
 2 -1 0 0 101   0  0.000000e+00  0.000000e+00  1.430249e+03  1.430249e+03 0.0 0.0 9.0
21 -1 0 0 103 101  0.000000e+00  0.000000e+00 -4.549434e+03  4.549434e+03 0.0 0.0 9.0
22  1 1 2   0   0 -1.955469e+02 -2.506671e+03 -1.055206e+03  2.726738e+03 0.0 0.0 9.0
 2  1 1 2 103   0  1.955469e+02  2.506671e+03 -2.063979e+03  3.252945e+03 0.0022 0.0 9.0
#pdf 2 21 2.200382e-01 6.999129e-01 5000.0 3.543597e-01 8.961454e-03
</event>
<event>
4 7 1.0 5000.0 7.905138e-03 7.739137e-02
 2 -1 0 0 101   0  0.000000e+00  0.000000e+00  1.979195e+03  1.979195e+03 0.0 0.0 9.0
21 -1 0 0 103 101  0.000000e+00  0.000000e+00 -3.217814e+03  3.217814e+03 0.0 0.0 9.0
22  1 1 2   0   0  2.158030e+03 -7.447462e+02 -1.726837e+03  2.862465e+03 0.0 0.0 9.0
 2  1 1 2 103   0 -2.158030e+03  7.447462e+02  4.882188e+02  2.334544e+03 0.0022 0.0 9.0
#pdf 2 21 3.044916e-01 4.950483e-01 5000.0 2.437092e-01 7.324415e-02
</event>
<event>
4 7 1.0 5000.0 7.905138e-03 7.739137e-02
21 -1 0 0 103 101  0.000000e+00  0.000000e+00  3.506489e+03  3.506489e+03 0.0 0.0 9.0
 2 -1 0 0 101   0  0.000000e+00  0.000000e+00 -1.772402e+03  1.772402e+03 0.0 0.0 9.0
 2  1 1 2 103   0 -5.264610e+02  1.342344e+03 -1.286126e+03  1.932141e+03 0.0022 0.0 9.0
22  1 1 2   0   0  5.264610e+02 -1.342344e+03  3.020213e+03  3.346750e+03 0.0 0.0 9.0
#pdf 21 2 5.394598e-01 2.726772e-01 5000.0 1.612342e-03 5.036050e-02
</event>
<event>
4 7 1.0 5000.0 7.905138e-03 7.739137e-02
21 -1 0 0 103 101  0.000000e+00  0.000000e+00  2.396488e+03  2.396488e+03 0.0 0.0 9.0
 2 -1 0 0 101   0  0.000000e+00  0.000000e+00 -2.780291e+03  2.780291e+03 0.0 0.0 9.0
 2  1 1 2 103   0  9.750823e+02 -1.430106e+03 -2.112114e+03  2.730753e+03 0.0022 0.0 9.0
22  1 1 2   0   0 -9.750823e+02  1.430106e+03  1.728310e+03  2.446026e+03 0.0 0.0 9.0
#pdf 21 2 3.686904e-01 4.277371e-01 5000.0 1.548702e-02 7.361825e-03
</event>
<event>
4 7 1.0 5000.0 7.905138e-03 7.739137e-02
21 -1 0 0 103 101  0.000000e+00  0.000000e+00  1.818309e+03  1.818309e+03 0.0 0.0 9.0
 2 -1 0 0 101   0  0.000000e+00  0.000000e+00 -3.437606e+03  3.437606e+03 0.0 0.0 9.0
 2  1 1 2 103   0  4.020967e+02 -2.466163e+03 -7.217607e+02  2.600880e+03 0.0022 0.0 9.0
22  1 1 2   0   0 -4.020967e+02  2.466163e+03 -8.975354e+02  2.655035e+03 0.0 0.0 9.0
#pdf 21 2 2.797399e-01 5.288624e-01 5000.0 4.617252e-02 1.880359e-03
</event>
<event>
4 7 1.0 5000.0 7.905138e-03 7.739137e-02
21 -1 0 0 103 101  0.000000e+00  0.000000e+00  2.127676e+03  2.127676e+03 0.0 0.0 9.0
 2 -1 0 0 101   0  0.000000e+00  0.000000e+00 -2.895627e+03  2.895627e+03 0.0 0.0 9.0
22  1 1 2   0   0 -1.849734e+03 -6.498923e+02 -1.924278e+03  2.747130e+03 0.0 0.0 9.0
 2  1 1 2 103   0  1.849734e+03  6.498923e+02  1.156327e+03  2.276174e+03 0.0022 0.0 9.0
#pdf 21 2 3.273348e-01 4.454811e-01 5000.0 2.577322e-02 5.849740e-03
</event>
<event>
4 7 1.0 5000.0 7.905138e-03 7.739137e-02
21 -1 0 0 103 101  0.000000e+00  0.000000e+00  1.718668e+03  1.718668e+03 0.0 0.0 9.0
 2 -1 0 0 101   0  0.000000e+00  0.000000e+00 -3.545564e+03  3.545564e+03 0.0 0.0 9.0
 2  1 1 2 103   0  1.840140e+03 -1.088097e+03  4.026813e+02  2.175367e+03 0.0022 0.0 9.0
22  1 1 2   0   0 -1.840140e+03  1.088097e+03 -2.229577e+03  3.088865e+03 0.0 0.0 9.0
#pdf 21 2 2.644105e-01 5.454714e-01 5000.0 5.576049e-02 1.477870e-03
</event>
<event>
4 7 1.0 5000.0 7.905138e-03 7.739137e-02
 2 -1 0 0 101   0  0.000000e+00  0.000000e+00  3.007664e+03  3.007664e+03 0.0 0.0 9.0
21 -1 0 0 103 101  0.000000e+00  0.000000e+00 -2.034836e+03  2.034836e+03 0.0 0.0 9.0
 2  1 1 2 103   0 -1.307059e+03 -1.101359e+03 -1.336323e+03  2.169598e+03 0.0022 0.0 9.0
22  1 1 2   0   0  1.307059e+03  1.101359e+03  2.309151e+03  2.872903e+03 0.0 0.0 9.0
#pdf 2 21 4.627176e-01 3.130517e-01 5000.0 9.338447e-02 2.334255e-01
</event>
<event>
4 7 1.0 5000.0 7.905138e-03 7.739137e-02
 2 -1 0 0 101   0  0.000000e+00  0.000000e+00  4.028902e+03  4.028902e+03 0.0 0.0 9.0
21 -1 0 0 103 101  0.000000e+00  0.000000e+00 -1.528024e+03  1.528024e+03 0.0 0.0 9.0
22  1 1 2   0   0 -2.458159e+03 -1.275745e+02  1.599987e+03  2.935776e+03 0.0 0.0 9.0
 2  1 1 2 103   0  2.458159e+03  1.275745e+02  9.008911e+02  2.621150e+03 0.0022 0.0 9.0
#pdf 2 21 6.198310e-01 2.350806e-01 5000.0 2.349632e-02 3.337671e-01
</event>
<event>
4 7 1.0 5000.0 7.905138e-03 7.739137e-02
21 -1 0 0 103 101  0.000000e+00  0.000000e+00  2.388926e+03  2.388926e+03 0.0 0.0 9.0
 2 -1 0 0 101   0  0.000000e+00  0.000000e+00 -2.617451e+03  2.617451e+03 0.0 0.0 9.0
 2  1 1 2 103   0  2.810310e+02 -9.912257e+02 -2.395102e+03  2.607301e+03 0.0022 0.0 9.0
22  1 1 2   0   0 -2.810310e+02  9.912257e+02  2.166577e+03  2.399076e+03 0.0 0.0 9.0
#pdf 21 2 3.675271e-01 4.026847e-01 5000.0 1.571569e-02 1.013141e-02
</event>
<event>
4 7 1.0 5000.0 7.905138e-03 7.739137e-02
21 -1 0 0 103 101  0.000000e+00  0.000000e+00  3.056080e+03  3.056080e+03 0.0 0.0 9.0
 2 -1 0 0 101   0  0.000000e+00  0.000000e+00 -2.056649e+03  2.056649e+03 0.0 0.0 9.0
 2  1 1 2 103   0 -8.587009e+02 -2.124974e+03  1.535775e+03  2.758892e+03 0.0022 0.0 9.0
22  1 1 2   0   0  8.587009e+02  2.124974e+03 -5.363446e+02  2.353837e+03 0.0 0.0 9.0
#pdf 21 2 4.701661e-01 3.164076e-01 5000.0 4.225423e-03 2.946457e-02
</event>
<event>
4 7 1.0 5000.0 7.905138e-03 7.739137e-02
 2 -1 0 0 101   0  0.000000e+00  0.000000e+00  1.739442e+03  1.739442e+03 0.0 0.0 9.0
21 -1 0 0 103 101  0.000000e+00  0.000000e+00 -3.614713e+03  3.614713e+03 0.0 0.0 9.0
22  1 1 2   0   0 -5.297817e+02 -7.698334e+02 -3.421850e+03  3.547163e+03 0.0 0.0 9.0
 2  1 1 2 103   0  5.297817e+02  7.698334e+02  1.546579e+03  1.806992e+03 0.0022 0.0 9.0
#pdf 2 21 2.676065e-01 5.561097e-01 5000.0 2.903127e-01 4.389059e-02
</event>
<event>
4 7 1.0 5000.0 7.905138e-03 7.739137e-02
21 -1 0 0 103 101  0.000000e+00  0.000000e+00  3.088947e+03  3.088947e+03 0.0 0.0 9.0
 2 -1 0 0 101   0  0.000000e+00  0.000000e+00 -2.073635e+03  2.073635e+03 0.0 0.0 9.0
22  1 1 2   0   0 -7.272992e+02  1.531996e+03  2.423739e+03  2.958122e+03 0.0 0.0 9.0
 2  1 1 2 103   0  7.272992e+02 -1.531996e+03 -1.408427e+03  2.204460e+03 0.0022 0.0 9.0
#pdf 21 2 4.752226e-01 3.190208e-01 5000.0 3.948900e-03 2.853331e-02
</event>
<event>
4 7 1.0 5000.0 7.905138e-03 7.739137e-02
 2 -1 0 0 101   0  0.000000e+00  0.000000e+00  2.672183e+03  2.672183e+03 0.0 0.0 9.0
21 -1 0 0 103 101  0.000000e+00  0.000000e+00 -2.369872e+03  2.369872e+03 0.0 0.0 9.0
22  1 1 2   0   0 -1.791035e+03  1.614562e+03  8.722550e+02  2.564263e+03 0.0 0.0 9.0
 2  1 1 2 103   0  1.791035e+03 -1.614562e+03 -5.699438e+02  2.477792e+03 0.0022 0.0 9.0
#pdf 2 21 4.111051e-01 3.645957e-01 5000.0 1.328594e-01 1.764282e-01
</event>
<event>
4 7 1.0 5000.0 7.905138e-03 7.739137e-02
 2 -1 0 0 101   0  0.000000e+00  0.000000e+00  2.283237e+03  2.283237e+03 0.0 0.0 9.0
21 -1 0 0 103 101  0.000000e+00  0.000000e+00 -2.775897e+03  2.775897e+03 0.0 0.0 9.0
22  1 1 2   0   0 -1.964366e+03  1.449774e+03 -8.636363e+02  2.589680e+03 0.0 0.0 9.0
 2  1 1 2 103   0  1.964366e+03 -1.449774e+03  3.709768e+02  2.469454e+03 0.0022 0.0 9.0
#pdf 2 21 3.512673e-01 4.270610e-01 5000.0 1.903157e-01 1.196612e-01
</event>
<event>
4 7 1.0 5000.0 7.905138e-03 7.739137e-02
21 -1 0 0 103 101  0.000000e+00  0.000000e+00  2.119201e+03  2.119201e+03 0.0 0.0 9.0
 2 -1 0 0 101   0  0.000000e+00  0.000000e+00 -2.768996e+03  2.768996e+03 0.0 0.0 9.0
22  1 1 2   0   0 -1.466433e+03 -1.540510e+03 -1.494790e+03  2.599614e+03 0.0 0.0 9.0
 2  1 1 2 103   0  1.466433e+03  1.540510e+03  8.449947e+02  2.288583e+03 0.0022 0.0 9.0
#pdf 21 2 3.260309e-01 4.259993e-01 5000.0 2.618747e-02 7.528745e-03
</event>
<event>
4 7 1.0 5000.0 7.905138e-03 7.739137e-02
 2 -1 0 0 101   0  0.000000e+00  0.000000e+00  1.926666e+03  1.926666e+03 0.0 0.0 9.0
21 -1 0 0 103 101  0.000000e+00  0.000000e+00 -3.502525e+03  3.502525e+03 0.0 0.0 9.0
 2  1 1 2 103   0 -9.809119e+02  2.336074e+03 -1.887523e+02  2.540680e+03 0.0022 0.0 9.0
22  1 1 2   0   0  9.809119e+02 -2.336074e+03 -1.387106e+03  2.888510e+03 0.0 0.0 9.0
#pdf 2 21 2.964102e-01 5.388499e-01 5000.0 2.536089e-01 5.110897e-02
</event>
<event>
4 7 1.0 5000.0 7.905138e-03 7.739137e-02
 2 -1 0 0 101   0  0.000000e+00  0.000000e+00  1.684543e+03  1.684543e+03 0.0 0.0 9.0
21 -1 0 0 103 101  0.000000e+00  0.000000e+00 -3.689831e+03  3.689831e+03 0.0 0.0 9.0
22  1 1 2   0   0  1.345951e+03  1.725922e+03 -2.289424e+03  3.167310e+03 0.0 0.0 9.0
 2  1 1 2 103   0 -1.345951e+03 -1.725922e+03  2.841360e+02  2.207063e+03 0.0022 0.0 9.0
#pdf 2 21 2.591604e-01 5.676662e-01 5000.0 3.014109e-01 3.947878e-02
</event>
<event>
4 7 1.0 5000.0 7.905138e-03 7.739137e-02
 2 -1 0 0 101   0  0.000000e+00  0.000000e+00  1.405398e+03  1.405398e+03 0.0 0.0 9.0
21 -1 0 0 103 101  0.000000e+00  0.000000e+00 -4.169042e+03  4.169042e+03 0.0 0.0 9.0
22  1 1 2   0   0 -1.871543e+03  1.220929e+03 -3.103812e+02  2.256031e+03 0.0 0.0 9.0
 2  1 1 2 103   0  1.871543e+03 -1.220929e+03 -2.453263e+03  3.318409e+03 0.0022 0.0 9.0
#pdf 2 21 2.162151e-01 6.413911e-01 5000.0 3.596098e-01 1.853575e-02
</event>
<event>
4 7 1.0 5000.0 7.905138e-03 7.739137e-02
 2 -1 0 0 101   0  0.000000e+00  0.000000e+00  4.846951e+03  4.846951e+03 0.0 0.0 9.0
21 -1 0 0 103 101  0.000000e+00  0.000000e+00 -1.304533e+03  1.304533e+03 0.0 0.0 9.0
 2  1 1 2 103   0  2.042929e+03  1.502224e+01 -2.199168e+01  2.043103e+03 0.0022 0.0 9.0
22  1 1 2   0   0 -2.042929e+03 -1.502224e+01  3.564409e+03  4.108382e+03 0.0 0.0 9.0
#pdf 2 21 7.456848e-01 2.006975e-01 5000.0 4.551330e-03 3.810648e-01
</event>
<event>
4 7 1.0 5000.0 7.905138e-03 7.739137e-02
 2 -1 0 0 101   0  0.000000e+00  0.000000e+00  3.087760e+03  3.087760e+03 0.0 0.0 9.0
21 -1 0 0 103 101  0.000000e+00  0.000000e+00 -1.802166e+03  1.802166e+03 0.0 0.0 9.0
22  1 1 2   0   0 -1.268814e+03 -1.617219e+03 -5.567110e+02  2.129604e+03 0.0 0.0 9.0
 2  1 1 2 103   0  1.268814e+03  1.617219e+03  1.842305e+03  2.760322e+03 0.0022 0.0 9.0
#pdf 2 21 4.750400e-01 2.772563e-01 5000.0 8.531007e-02 2.777905e-01
</event>
<event>
4 7 1.0 5000.0 7.905138e-03 7.739137e-02
 2 -1 0 0 101   0  0.000000e+00  0.000000e+00  3.836419e+03  3.836419e+03 0.0 0.0 9.0
21 -1 0 0 103 101  0.000000e+00  0.000000e+00 -1.602645e+03  1.602645e+03 0.0 0.0 9.0
 2  1 1 2 103   0 -1.046954e+03  3.106632e+02 -1.324682e+03  1.716802e+03 0.0022 0.0 9.0
22  1 1 2   0   0  1.046954e+03 -3.106632e+02  3.558456e+03  3.722262e+03 0.0 0.0 9.0
#pdf 2 21 5.902183e-01 2.465607e-01 5000.0 3.181614e-02 3.182495e-01
</event>
<event>
4 7 1.0 5000.0 7.905138e-03 7.739137e-02
21 -1 0 0 103 101  0.000000e+00  0.000000e+00  2.501853e+03  2.501853e+03 0.0 0.0 9.0
 2 -1 0 0 101   0  0.000000e+00  0.000000e+00 -2.463686e+03  2.463686e+03 0.0 0.0 9.0
 2  1 1 2 103   0 -1.487893e+03  1.801930e+03  8.575600e+02  2.489214e+03 0.0022 0.0 9.0
22  1 1 2   0   0  1.487893e+03 -1.801930e+03 -8.193935e+02  2.476325e+03 0.0 0.0 9.0
#pdf 21 2 3.849004e-01 3.790286e-01 5000.0 1.267268e-02 1.363968e-02
</event>
<event>
4 7 1.0 5000.0 7.905138e-03 7.739137e-02
 2 -1 0 0 101   0  0.000000e+00  0.000000e+00  2.770052e+03  2.770052e+03 0.0 0.0 9.0
21 -1 0 0 103 101  0.000000e+00  0.000000e+00 -2.309452e+03  2.309452e+03 0.0 0.0 9.0
22  1 1 2   0   0 -2.101942e+02  4.594906e+02  2.718855e+03  2.765409e+03 0.0 0.0 9.0
 2  1 1 2 103   0  2.101942e+02 -4.594906e+02 -2.258255e+03  2.314094e+03 0.0022 0.0 9.0
#pdf 2 21 4.261618e-01 3.553002e-01 5000.0 1.203805e-01 1.860492e-01
</event>
<event>
4 7 1.0 5000.0 7.905138e-03 7.739137e-02
21 -1 0 0 103 101  0.000000e+00  0.000000e+00  1.598263e+03  1.598263e+03 0.0 0.0 9.0
 2 -1 0 0 101   0  0.000000e+00  0.000000e+00 -3.686403e+03  3.686403e+03 0.0 0.0 9.0
 2  1 1 2 103   0  1.208072e+03  5.662298e+02  1.163311e+03  1.770127e+03 0.0022 0.0 9.0
22  1 1 2   0   0 -1.208072e+03 -5.662298e+02 -3.251451e+03  3.514540e+03 0.0 0.0 9.0
#pdf 21 2 2.458867e-01 5.671390e-01 5000.0 7.016258e-02 1.070936e-03
</event>
<event>
4 7 1.0 5000.0 7.905138e-03 7.739137e-02
21 -1 0 0 103 101  0.000000e+00  0.000000e+00  2.372317e+03  2.372317e+03 0.0 0.0 9.0
 2 -1 0 0 101   0  0.000000e+00  0.000000e+00 -2.726532e+03  2.726532e+03 0.0 0.0 9.0
22  1 1 2   0   0 -2.053818e+02  1.394143e+03  1.945183e+03  2.401990e+03 0.0 0.0 9.0
 2  1 1 2 103   0  2.053818e+02 -1.394143e+03 -2.299398e+03  2.696859e+03 0.0022 0.0 9.0
#pdf 21 2 3.649718e-01 4.194664e-01 5000.0 1.622634e-02 8.185808e-03
</event>
<event>
4 7 1.0 5000.0 7.905138e-03 7.739137e-02
 2 -1 0 0 101   0  0.000000e+00  0.000000e+00  2.511411e+03  2.511411e+03 0.0 0.0 9.0
21 -1 0 0 103 101  0.000000e+00  0.000000e+00 -2.731654e+03  2.731654e+03 0.0 0.0 9.0
22  1 1 2   0   0  5.948929e+02  4.464949e+02  2.403481e+03  2.515944e+03 0.0 0.0 9.0
 2  1 1 2 103   0 -5.948929e+02 -4.464949e+02 -2.623724e+03  2.727120e+03 0.0022 0.0 9.0
#pdf 2 21 3.863709e-01 4.202545e-01 5000.0 1.550901e-01 1.251801e-01
</event>
<event>
4 7 1.0 5000.0 7.905138e-03 7.739137e-02
 2 -1 0 0 101   0  0.000000e+00  0.000000e+00  2.510557e+03  2.510557e+03 0.0 0.0 9.0
21 -1 0 0 103 101  0.000000e+00  0.000000e+00 -2.358944e+03  2.358944e+03 0.0 0.0 9.0
 2  1 1 2 103   0 -1.067054e+03 -1.167626e+03 -1.774499e+03  2.377141e+03 0.0022 0.0 9.0
22  1 1 2   0   0  1.067054e+03  1.167626e+03  1.926111e+03  2.492360e+03 0.0 0.0 9.0
#pdf 2 21 3.862395e-01 3.629145e-01 5000.0 1.552139e-01 1.781469e-01
</event>
<event>
4 7 1.0 5000.0 7.905138e-03 7.739137e-02
21 -1 0 0 103 101  0.000000e+00  0.000000e+00  2.743821e+03  2.743821e+03 0.0 0.0 9.0
 2 -1 0 0 101   0  0.000000e+00  0.000000e+00 -2.232127e+03  2.232127e+03 0.0 0.0 9.0
 2  1 1 2 103   0 -1.787919e+03  9.019711e+02 -1.205983e+03  2.337649e+03 0.0022 0.0 9.0
22  1 1 2   0   0  1.787919e+03 -9.019711e+02  1.717678e+03  2.638299e+03 0.0 0.0 9.0
#pdf 21 2 4.221263e-01 3.434041e-01 5000.0 7.912477e-03 2.116318e-02
</event>
<event>
4 7 1.0 5000.0 7.905138e-03 7.739137e-02
 2 -1 0 0 101   0  0.000000e+00  0.000000e+00  1.935035e+03  1.935035e+03 0.0 0.0 9.0
21 -1 0 0 103 101  0.000000e+00  0.000000e+00 -3.187432e+03  3.187432e+03 0.0 0.0 9.0
22  1 1 2   0   0 -4.896220e+01  1.119315e+03  1.659595e+03  2.002378e+03 0.0 0.0 9.0
 2  1 1 2 103   0  4.896220e+01 -1.119315e+03 -2.911991e+03  3.120089e+03 0.0022 0.0 9.0
#pdf 2 21 2.976978e-01 4.903741e-01 5000.0 2.520222e-01 7.594847e-02
</event>
<event>
4 7 1.0 5000.0 7.905138e-03 7.739137e-02
 2 -1 0 0 101   0  0.000000e+00  0.000000e+00  4.723599e+03  4.723599e+03 0.0 0.0 9.0
21 -1 0 0 103 101  0.000000e+00  0.000000e+00 -1.326937e+03  1.326937e+03 0.0 0.0 9.0
22  1 1 2   0   0 -1.359023e+03  2.602133e+02 -8.228836e+02  1.609904e+03 0.0 0.0 9.0
 2  1 1 2 103   0  1.359023e+03 -2.602133e+02  4.219545e+03  4.440632e+03 0.0022 0.0 9.0
#pdf 2 21 7.267075e-01 2.041442e-01 5000.0 6.112451e-03 3.763245e-01
</event>
<event>
4 7 1.0 5000.0 7.905138e-03 7.739137e-02
21 -1 0 0 103 101  0.000000e+00  0.000000e+00  1.820284e+03  1.820284e+03 0.0 0.0 9.0
 2 -1 0 0 101   0  0.000000e+00  0.000000e+00 -3.219641e+03  3.219641e+03 0.0 0.0 9.0
22  1 1 2   0   0  2.226506e+03  4.785778e+02  1.550846e+02  2.282633e+03 0.0 0.0 9.0
 2  1 1 2 103   0 -2.226506e+03 -4.785778e+02 -1.554442e+03  2.757291e+03 0.0022 0.0 9.0
#pdf 21 2 2.800436e-01 4.953294e-01 5000.0 4.600009e-02 3.005794e-03
</event>
<event>
4 7 1.0 5000.0 7.905138e-03 7.739137e-02
 2 -1 0 0 101   0  0.000000e+00  0.000000e+00  1.643321e+03  1.643321e+03 0.0 0.0 9.0
21 -1 0 0 103 101  0.000000e+00  0.000000e+00 -2.737432e+03  2.737432e+03 0.0 0.0 9.0
22  1 1 2   0   0  1.420095e+03  2.315268e+02 -2.156324e+03  2.592298e+03 0.0 0.0 9.0
 2  1 1 2 103   0 -1.420095e+03 -2.315268e+02  1.062212e+03  1.788455e+03 0.0022 0.0 9.0
#pdf 2 21 2.528186e-01 4.211434e-01 5000.0 3.098239e-01 1.244497e-01
</event>
<event>
4 7 1.0 5000.0 7.905138e-03 7.739137e-02
 2 -1 0 0 101   0  0.000000e+00  0.000000e+00  2.196821e+03  2.196821e+03 0.0 0.0 9.0
21 -1 0 0 103 101  0.000000e+00  0.000000e+00 -2.707779e+03  2.707779e+03 0.0 0.0 9.0
22  1 1 2   0   0 -1.217835e+03  6.599783e+02 -2.273902e+03  2.662578e+03 0.0 0.0 9.0
 2  1 1 2 103   0  1.217835e+03 -6.599783e+02  1.762944e+03  2.242022e+03 0.0022 0.0 9.0
#pdf 2 21 3.379725e-01 4.165814e-01 5000.0 2.047762e-01 1.282280e-01
</event>
<event>
4 7 1.0 5000.0 7.905138e-03 7.739137e-02
 2 -1 0 0 101   0  0.000000e+00  0.000000e+00  2.239768e+03  2.239768e+03 0.0 0.0 9.0
21 -1 0 0 103 101  0.000000e+00  0.000000e+00 -2.703820e+03  2.703820e+03 0.0 0.0 9.0
22  1 1 2   0   0 -1.723712e+03 -1.169305e+03 -1.548361e+03  2.595358e+03 0.0 0.0 9.0
 2  1 1 2 103   0  1.723712e+03  1.169305e+03  1.084310e+03  2.348231e+03 0.0022 0.0 9.0
#pdf 2 21 3.445798e-01 4.159723e-01 5000.0 1.975168e-01 1.287380e-01
</event>
<event>
4 7 1.0 5000.0 7.905138e-03 7.739137e-02
 2 -1 0 0 101   0  0.000000e+00  0.000000e+00  2.167653e+03  2.167653e+03 0.0 0.0 9.0
21 -1 0 0 103 101  0.000000e+00  0.000000e+00 -2.889671e+03  2.889671e+03 0.0 0.0 9.0
22  1 1 2   0   0 -3.667600e+02  2.429186e+03  1.217908e+02  2.459734e+03 0.0 0.0 9.0
 2  1 1 2 103   0  3.667600e+02 -2.429186e+03 -8.438087e+02  2.597589e+03 0.0022 0.0 9.0
#pdf 2 21 3.334850e-01 4.445647e-01 5000.0 2.097847e-01 1.062181e-01
</event>
<event>
4 7 1.0 5000.0 7.905138e-03 7.739137e-02
21 -1 0 0 103 101  0.000000e+00  0.000000e+00  1.923546e+03  1.923546e+03 0.0 0.0 9.0
 2 -1 0 0 101   0  0.000000e+00  0.000000e+00 -3.114421e+03  3.114421e+03 0.0 0.0 9.0
 2  1 1 2 103   0 -1.651963e+03 -1.065477e+02  1.260031e+03  2.080388e+03 0.0022 0.0 9.0
22  1 1 2   0   0  1.651963e+03  1.065477e+02 -2.450906e+03  2.957580e+03 0.0 0.0 9.0
#pdf 21 2 2.959301e-01 4.791417e-01 5000.0 3.789615e-02 3.745633e-03
</event>
<event>
4 7 1.0 5000.0 7.905138e-03 7.739137e-02
 2 -1 0 0 101   0  0.000000e+00  0.000000e+00  1.314481e+03  1.314481e+03 0.0 0.0 9.0
21 -1 0 0 103 101  0.000000e+00  0.000000e+00 -4.728925e+03  4.728925e+03 0.0 0.0 9.0
 2  1 1 2 103   0 -3.376388e+02 -1.709656e+03  4.537522e+02  1.800782e+03 0.0022 0.0 9.0
22  1 1 2   0   0  3.376388e+02  1.709656e+03 -3.868196e+03  4.242624e+03 0.0 0.0 9.0
#pdf 2 21 2.022279e-01 7.275269e-01 5000.0 3.789597e-01 6.037871e-03
</event>
<event>
4 7 1.0 5000.0 7.905138e-03 7.739137e-02
21 -1 0 0 103 101  0.000000e+00  0.000000e+00  2.545082e+03  2.545082e+03 0.0 0.0 9.0
 2 -1 0 0 101   0  0.000000e+00  0.000000e+00 -2.452516e+03  2.452516e+03 0.0 0.0 9.0
22  1 1 2   0   0 -9.406454e+02  4.042198e+01 -2.268289e+03  2.455928e+03 0.0 0.0 9.0
 2  1 1 2 103   0  9.406454e+02 -4.042198e+01  2.360855e+03  2.541669e+03 0.0022 0.0 9.0
#pdf 21 2 3.915510e-01 3.773102e-01 5000.0 1.165377e-02 1.393312e-02
</event>
<event>
4 7 1.0 5000.0 7.905138e-03 7.739137e-02
21 -1 0 0 103 101  0.000000e+00  0.000000e+00  1.601110e+03  1.601110e+03 0.0 0.0 9.0
 2 -1 0 0 101   0  0.000000e+00  0.000000e+00 -4.010911e+03  4.010911e+03 0.0 0.0 9.0
22  1 1 2   0   0  8.048240e+02 -9.320279e+02 -3.657342e+03  3.859089e+03 0.0 0.0 9.0
 2  1 1 2 103   0 -8.048240e+02  9.320279e+02  1.247541e+03  1.752933e+03 0.0022 0.0 9.0
#pdf 21 2 2.463247e-01 6.170633e-01 5000.0 6.979112e-02 4.864427e-04
</event>
<event>
4 7 1.0 5000.0 7.905138e-03 7.739137e-02
21 -1 0 0 103 101  0.000000e+00  0.000000e+00  3.757740e+03  3.757740e+03 0.0 0.0 9.0
 2 -1 0 0 101   0  0.000000e+00  0.000000e+00 -1.641692e+03  1.641692e+03 0.0 0.0 9.0
22  1 1 2   0   0  1.577118e+03  1.935873e+02 -1.016958e+03  1.886526e+03 0.0 0.0 9.0
 2  1 1 2 103   0 -1.577118e+03 -1.935873e+02  3.133007e+03  3.512906e+03 0.0022 0.0 9.0
#pdf 21 2 5.781139e-01 2.525680e-01 5000.0 9.046730e-04 6.464972e-02
</event>
<event>
4 7 1.0 5000.0 7.905138e-03 7.739137e-02
21 -1 0 0 103 101  0.000000e+00  0.000000e+00  1.869392e+03  1.869392e+03 0.0 0.0 9.0
 2 -1 0 0 101   0  0.000000e+00  0.000000e+00 -3.315989e+03  3.315989e+03 0.0 0.0 9.0
 2  1 1 2 103   0 -1.497820e+03 -7.914806e+02  1.176683e+03  2.062641e+03 0.0022 0.0 9.0
22  1 1 2   0   0  1.497820e+03  7.914806e+02 -2.623280e+03  3.122740e+03 0.0 0.0 9.0
#pdf 21 2 2.875988e-01 5.101522e-01 5000.0 4.194049e-02 2.448250e-03
</event>
<event>
4 7 1.0 5000.0 7.905138e-03 7.739137e-02
21 -1 0 0 103 101  0.000000e+00  0.000000e+00  2.428450e+03  2.428450e+03 0.0 0.0 9.0
 2 -1 0 0 101   0  0.000000e+00  0.000000e+00 -2.288121e+03  2.288121e+03 0.0 0.0 9.0
22  1 1 2   0   0 -5.644185e+02  3.334468e+02 -2.195089e+03  2.290889e+03 0.0 0.0 9.0
 2  1 1 2 103   0  5.644185e+02 -3.334468e+02  2.335418e+03  2.425682e+03 0.0022 0.0 9.0
#pdf 21 2 3.736077e-01 3.520186e-01 5000.0 1.457938e-02 1.903874e-02
</event>
<event>
4 7 1.0 5000.0 7.905138e-03 7.739137e-02
 2 -1 0 0 101   0  0.000000e+00  0.000000e+00  8.381022e+02  8.381022e+02 0.0 0.0 9.0
21 -1 0 0 103 101  0.000000e+00  0.000000e+00 -6.038942e+03  6.038942e+03 0.0 0.0 9.0
22  1 1 2   0   0 -1.251155e+03 -1.844907e+03 -3.064469e+03  3.789464e+03 0.0 0.0 9.0
 2  1 1 2 103   0  1.251155e+03  1.844907e+03 -2.136371e+03  3.087580e+03 0.0022 0.0 9.0
#pdf 2 21 1.289388e-01 9.290680e-01 5000.0 4.768051e-01 2.576048e-05
</event>
<event>
4 7 1.0 5000.0 7.905138e-03 7.739137e-02
21 -1 0 0 103 101  0.000000e+00  0.000000e+00  2.341482e+03  2.341482e+03 0.0 0.0 9.0
 2 -1 0 0 101   0  0.000000e+00  0.000000e+00 -2.646221e+03  2.646221e+03 0.0 0.0 9.0
22  1 1 2   0   0  1.118269e+03 -5.061770e+01 -2.379815e+03  2.629944e+03 0.0 0.0 9.0
 2  1 1 2 103   0 -1.118269e+03  5.061770e+01  2.075076e+03  2.357759e+03 0.0022 0.0 9.0
#pdf 21 2 3.602280e-01 4.071109e-01 5000.0 1.720043e-02 9.579727e-03
</event>
<event>
4 7 1.0 5000.0 7.905138e-03 7.739137e-02
 2 -1 0 0 101   0  0.000000e+00  0.000000e+00  1.929258e+03  1.929258e+03 0.0 0.0 9.0
21 -1 0 0 103 101  0.000000e+00  0.000000e+00 -3.585347e+03  3.585347e+03 0.0 0.0 9.0
 2  1 1 2 103   0 -2.103641e+03 -1.155534e+03 -1.955489e+03  3.095885e+03 0.0022 0.0 9.0
22  1 1 2   0   0  2.103641e+03  1.155534e+03  2.994001e+02  2.418720e+03 0.0 0.0 9.0
#pdf 2 21 2.968089e-01 5.515918e-01 5000.0 2.531168e-01 4.569037e-02
</event>
<event>
4 7 1.0 5000.0 7.905138e-03 7.739137e-02
21 -1 0 0 103 101  0.000000e+00  0.000000e+00  4.314931e+03  4.314931e+03 0.0 0.0 9.0
 2 -1 0 0 101   0  0.000000e+00  0.000000e+00 -1.501738e+03  1.501738e+03 0.0 0.0 9.0
22  1 1 2   0   0 -1.823890e+01  2.235935e+03  1.659870e+01  2.236071e+03 0.0 0.0 9.0
 2  1 1 2 103   0  1.823890e+01 -2.235935e+03  2.796594e+03  3.580597e+03 0.0022 0.0 9.0
#pdf 21 2 6.638355e-01 2.310366e-01 5000.0 2.158051e-04 8.453636e-02
</event>
<event>
4 7 1.0 5000.0 7.905138e-03 7.739137e-02
 2 -1 0 0 101   0  0.000000e+00  0.000000e+00  3.186029e+03  3.186029e+03 0.0 0.0 9.0
21 -1 0 0 103 101  0.000000e+00  0.000000e+00 -1.865635e+03  1.865635e+03 0.0 0.0 9.0
 2  1 1 2 103   0 -1.146406e+03  2.052083e+03 -1.015838e+01  2.350616e+03 0.0022 0.0 9.0
22  1 1 2   0   0  1.146406e+03 -2.052083e+03  1.330553e+03  2.701048e+03 0.0 0.0 9.0
#pdf 2 21 4.901583e-01 2.870207e-01 5000.0 7.607496e-02 2.653530e-01
</event>
<event>
4 7 1.0 5000.0 7.905138e-03 7.739137e-02
21 -1 0 0 103 101  0.000000e+00  0.000000e+00  3.306932e+03  3.306932e+03 0.0 0.0 9.0
 2 -1 0 0 101   0  0.000000e+00  0.000000e+00 -1.806244e+03  1.806244e+03 0.0 0.0 9.0
 2  1 1 2 103   0  6.028431e+02  1.742199e+03  2.428769e+03  3.049196e+03 0.0022 0.0 9.0
22  1 1 2   0   0 -6.028431e+02 -1.742199e+03 -9.280817e+02  2.063980e+03 0.0 0.0 9.0
#pdf 21 2 5.087588e-01 2.778837e-01 5000.0 2.496149e-03 4.723946e-02
</event>
<event>
4 7 1.0 5000.0 7.905138e-03 7.739137e-02
21 -1 0 0 103 101  0.000000e+00  0.000000e+00  1.429267e+03  1.429267e+03 0.0 0.0 9.0
 2 -1 0 0 101   0  0.000000e+00  0.000000e+00 -4.070543e+03  4.070543e+03 0.0 0.0 9.0
22  1 1 2   0   0  3.769082e+02  1.983261e+03 -2.825588e+03  3.472655e+03 0.0 0.0 9.0
 2  1 1 2 103   0 -3.769082e+02 -1.983261e+03  1.843121e+02  2.027155e+03 0.0022 0.0 9.0
#pdf 21 2 2.198872e-01 6.262374e-01 5000.0 9.741724e-02 4.174655e-04
</event>
<event>
4 7 1.0 5000.0 7.905138e-03 7.739137e-02
 2 -1 0 0 101   0  0.000000e+00  0.000000e+00  1.766003e+03  1.766003e+03 0.0 0.0 9.0
21 -1 0 0 103 101  0.000000e+00  0.000000e+00 -3.008903e+03  3.008903e+03 0.0 0.0 9.0
22  1 1 2   0   0 -1.156825e+03 -1.394663e+03  8.543455e+02  2.003306e+03 0.0 0.0 9.0
 2  1 1 2 103   0  1.156825e+03  1.394663e+03 -2.097245e+03  2.771600e+03 0.0022 0.0 9.0
#pdf 2 21 2.716928e-01 4.629082e-01 5000.0 2.849844e-01 9.325598e-02
</event>
<event>
4 7 1.0 5000.0 7.905138e-03 7.739137e-02
21 -1 0 0 103 101  0.000000e+00  0.000000e+00  2.026291e+03  2.026291e+03 0.0 0.0 9.0
 2 -1 0 0 101   0  0.000000e+00  0.000000e+00 -3.040965e+03  3.040965e+03 0.0 0.0 9.0
22  1 1 2   0   0  7.339483e+02 -2.353449e+03 -2.106815e+02  2.474225e+03 0.0 0.0 9.0
 2  1 1 2 103   0 -7.339483e+02  2.353449e+03 -8.039928e+02  2.593031e+03 0.0022 0.0 9.0
#pdf 21 2 3.117370e-01 4.678408e-01 5000.0 3.121776e-02 4.358226e-03
</event>
<event>
4 7 1.0 5000.0 7.905138e-03 7.739137e-02
 2 -1 0 0 101   0  0.000000e+00  0.000000e+00  3.056804e+03  3.056804e+03 0.0 0.0 9.0
21 -1 0 0 103 101  0.000000e+00  0.000000e+00 -2.006330e+03  2.006330e+03 0.0 0.0 9.0
 2  1 1 2 103   0  7.918022e+02  2.061940e+03  1.670154e+03  2.769109e+03 0.0022 0.0 9.0
22  1 1 2   0   0 -7.918022e+02 -2.061940e+03 -6.196810e+02  2.294025e+03 0.0 0.0 9.0
#pdf 2 21 4.702775e-01 3.086662e-01 5000.0 8.837508e-02 2.386639e-01
</event>
<event>
4 7 1.0 5000.0 7.905138e-03 7.739137e-02
 2 -1 0 0 101   0  0.000000e+00  0.000000e+00  4.016014e+03  4.016014e+03 0.0 0.0 9.0
21 -1 0 0 103 101  0.000000e+00  0.000000e+00 -1.592927e+03  1.592927e+03 0.0 0.0 9.0
 2  1 1 2 103   0 -9.758796e+02  2.301975e+03  1.634904e+03  2.987364e+03 0.0022 0.0 9.0
22  1 1 2   0   0  9.758796e+02 -2.301975e+03  7.881825e+02  2.621577e+03 0.0 0.0 9.0
#pdf 2 21 6.178483e-01 2.450657e-01 5000.0 2.399709e-02 3.202636e-01
</event>
<event>
4 7 1.0 5000.0 7.905138e-03 7.739137e-02
 2 -1 0 0 101   0  0.000000e+00  0.000000e+00  4.495108e+03  4.495108e+03 0.0 0.0 9.0
21 -1 0 0 103 101  0.000000e+00  0.000000e+00 -1.404253e+03  1.404253e+03 0.0 0.0 9.0
 2  1 1 2 103   0 -9.716510e+02  5.014332e+02  4.201124e+03  4.341081e+03 0.0022 0.0 9.0
22  1 1 2   0   0  9.716510e+02 -5.014332e+02 -1.110268e+03  1.558280e+03 0.0 0.0 9.0
#pdf 2 21 6.915551e-01 2.160389e-01 5000.0 1.003045e-02 3.598524e-01
</event>
<event>
4 7 1.0 5000.0 7.905138e-03 7.739137e-02
21 -1 0 0 103 101  0.000000e+00  0.000000e+00  1.905915e+03  1.905915e+03 0.0 0.0 9.0
 2 -1 0 0 101   0  0.000000e+00  0.000000e+00 -3.403282e+03  3.403282e+03 0.0 0.0 9.0
22  1 1 2   0   0  1.211420e+03  2.227009e+03 -4.949502e+02  2.583037e+03 0.0 0.0 9.0
 2  1 1 2 103   0 -1.211420e+03 -2.227009e+03 -1.002417e+03  2.726159e+03 0.0022 0.0 9.0
#pdf 21 2 2.932177e-01 5.235818e-01 5000.0 3.917848e-02 2.026458e-03
</event>
<event>
4 7 1.0 5000.0 7.905138e-03 7.739137e-02
21 -1 0 0 103 101  0.000000e+00  0.000000e+00  3.209484e+03  3.209484e+03 0.0 0.0 9.0
 2 -1 0 0 101   0  0.000000e+00  0.000000e+00 -1.953818e+03  1.953818e+03 0.0 0.0 9.0
22  1 1 2   0   0 -4.121134e+02 -2.063172e+03 -7.722228e+02  2.241170e+03 0.0 0.0 9.0
 2  1 1 2 103   0  4.121134e+02  2.063172e+03  2.027889e+03  2.922131e+03 0.0022 0.0 9.0
#pdf 21 2 4.937667e-01 3.005873e-01 5000.0 3.070749e-03 3.575332e-02
</event>
<event>
4 7 1.0 5000.0 7.905138e-03 7.739137e-02
 2 -1 0 0 101   0  0.000000e+00  0.000000e+00  3.115864e+03  3.115864e+03 0.0 0.0 9.0
21 -1 0 0 103 101  0.000000e+00  0.000000e+00 -1.933585e+03  1.933585e+03 0.0 0.0 9.0
 2  1 1 2 103   0 -7.458466e+02 -2.332838e+03  4.241168e+02  2.485617e+03 0.0022 0.0 9.0
22  1 1 2   0   0  7.458466e+02  2.332838e+03  7.581626e+02  2.563831e+03 0.0 0.0 9.0
#pdf 2 21 4.793637e-01 2.974745e-01 5000.0 8.259199e-02 2.522968e-01
</event>
<event>
4 7 1.0 5000.0 7.905138e-03 7.739137e-02
21 -1 0 0 103 101  0.000000e+00  0.000000e+00  2.353471e+03  2.353471e+03 0.0 0.0 9.0
 2 -1 0 0 101   0  0.000000e+00  0.000000e+00 -2.684480e+03  2.684480e+03 0.0 0.0 9.0
 2  1 1 2 103   0 -1.372205e+03 -2.000283e+03 -8.255400e+02  2.562342e+03 0.0022 0.0 9.0
22  1 1 2   0   0  1.372205e+03  2.000283e+03  4.945309e+02  2.475609e+03 0.0 0.0 9.0
#pdf 21 2 3.620724e-01 4.129969e-01 5000.0 1.681631e-02 8.888256e-03
</event>
<event>
4 7 1.0 5000.0 7.905138e-03 7.739137e-02
 2 -1 0 0 101   0  0.000000e+00  0.000000e+00  1.724257e+03  1.724257e+03 0.0 0.0 9.0
21 -1 0 0 103 101  0.000000e+00  0.000000e+00 -3.575141e+03  3.575141e+03 0.0 0.0 9.0
 2  1 1 2 103   0 -1.608126e+03  1.889121e+03 -8.207918e+02  2.613148e+03 0.0022 0.0 9.0
22  1 1 2   0   0  1.608126e+03 -1.889121e+03 -1.030093e+03  2.686250e+03 0.0 0.0 9.0
#pdf 2 21 2.652703e-01 5.500217e-01 5000.0 2.933729e-01 4.633574e-02
</event>
<event>
4 7 1.0 5000.0 7.905138e-03 7.739137e-02
 2 -1 0 0 101   0  0.000000e+00  0.000000e+00  1.674988e+03  1.674988e+03 0.0 0.0 9.0
21 -1 0 0 103 101  0.000000e+00  0.000000e+00 -3.718393e+03  3.718393e+03 0.0 0.0 9.0
 2  1 1 2 103   0 -3.423762e+02 -1.965344e+03  5.985799e+02  2.082810e+03 0.0022 0.0 9.0
22  1 1 2   0   0  3.423762e+02  1.965344e+03 -2.641984e+03  3.310571e+03 0.0 0.0 9.0
#pdf 2 21 2.576905e-01 5.720604e-01 5000.0 3.033527e-01 3.788556e-02
</event>
<event>
4 7 1.0 5000.0 7.905138e-03 7.739137e-02
 2 -1 0 0 101   0  0.000000e+00  0.000000e+00  1.576356e+03  1.576356e+03 0.0 0.0 9.0
21 -1 0 0 103 101  0.000000e+00  0.000000e+00 -3.965993e+03  3.965993e+03 0.0 0.0 9.0
 2  1 1 2 103   0 -2.273073e+03  2.073736e+02 -6.350050e+01  2.283396e+03 0.0022 0.0 9.0
22  1 1 2   0   0  2.273073e+03 -2.073736e+02 -2.326136e+03  3.258953e+03 0.0 0.0 9.0
#pdf 2 21 2.425164e-01 6.101527e-01 5000.0 3.236724e-01 2.601533e-02
</event>
<event>
4 7 1.0 5000.0 7.905138e-03 7.739137e-02
21 -1 0 0 103 101  0.000000e+00  0.000000e+00  1.944568e+03  1.944568e+03 0.0 0.0 9.0
 2 -1 0 0 101   0  0.000000e+00  0.000000e+00 -3.253938e+03  3.253938e+03 0.0 0.0 9.0
22  1 1 2   0   0 -1.870558e+03  1.436907e+03  2.483952e+02  2.371790e+03 0.0 0.0 9.0
 2  1 1 2 103   0  1.870558e+03 -1.436907e+03 -1.557766e+03  2.826716e+03 0.0022 0.0 9.0
#pdf 21 2 2.991643e-01 5.006059e-01 5000.0 3.639452e-02 2.794782e-03
</event>
<event>
4 7 1.0 5000.0 7.905138e-03 7.739137e-02
 2 -1 0 0 101   0  0.000000e+00  0.000000e+00  2.901358e+03  2.901358e+03 0.0 0.0 9.0
21 -1 0 0 103 101  0.000000e+00  0.000000e+00 -2.261064e+03  2.261064e+03 0.0 0.0 9.0
 2  1 1 2 103   0 -7.662164e+02 -1.954593e+03 -1.158456e+03  2.397820e+03 0.0022 0.0 9.0
22  1 1 2   0   0  7.662164e+02  1.954593e+03  1.798749e+03  2.764602e+03 0.0 0.0 9.0
#pdf 2 21 4.463627e-01 3.478560e-01 5000.0 1.048895e-01 1.939697e-01
</event>
<event>
4 7 1.0 5000.0 7.905138e-03 7.739137e-02
21 -1 0 0 103 101  0.000000e+00  0.000000e+00  3.093603e+03  3.093603e+03 0.0 0.0 9.0
 2 -1 0 0 101   0  0.000000e+00  0.000000e+00 -2.291418e+03  2.291418e+03 0.0 0.0 9.0
 2  1 1 2 103   0 -1.483192e+03 -1.962772e+03  1.430618e+03  2.845875e+03 0.0022 0.0 9.0
22  1 1 2   0   0  1.483192e+03  1.962772e+03 -6.284323e+02  2.539146e+03 0.0 0.0 9.0
#pdf 21 2 4.759389e-01 3.525258e-01 5000.0 3.911044e-03 1.891927e-02
</event>
<event>
4 7 1.0 5000.0 7.905138e-03 7.739137e-02
21 -1 0 0 103 101  0.000000e+00  0.000000e+00  2.750166e+03  2.750166e+03 0.0 0.0 9.0
 2 -1 0 0 101   0  0.000000e+00  0.000000e+00 -2.411598e+03  2.411598e+03 0.0 0.0 9.0
 2  1 1 2 103   0 -2.505349e+03 -5.959423e+02  1.498921e+02  2.579610e+03 0.0022 0.0 9.0
22  1 1 2   0   0  2.505349e+03  5.959423e+02  1.886758e+02  2.582154e+03 0.0 0.0 9.0
#pdf 21 2 4.231025e-01 3.710151e-01 5000.0 7.814217e-03 1.504574e-02
</event>
<event>
4 7 1.0 5000.0 7.905138e-03 7.739137e-02
 2 -1 0 0 101   0  0.000000e+00  0.000000e+00  1.720066e+03  1.720066e+03 0.0 0.0 9.0
21 -1 0 0 103 101  0.000000e+00  0.000000e+00 -3.630930e+03  3.630930e+03 0.0 0.0 9.0
 2  1 1 2 103   0 -2.905139e+02  1.844843e+03 -2.733254e+03  3.310366e+03 0.0022 0.0 9.0
22  1 1 2   0   0  2.905139e+02 -1.844843e+03  8.223897e+02  2.040630e+03 0.0 0.0 9.0
#pdf 2 21 2.646255e-01 5.586046e-01 5000.0 2.942189e-01 4.291587e-02
</event>
<event>
4 7 1.0 5000.0 7.905138e-03 7.739137e-02
 2 -1 0 0 101   0  0.000000e+00  0.000000e+00  1.605268e+03  1.605268e+03 0.0 0.0 9.0
21 -1 0 0 103 101  0.000000e+00  0.000000e+00 -3.864814e+03  3.864814e+03 0.0 0.0 9.0
 2  1 1 2 103   0 -2.047529e+03 -5.497062e+01 -2.686024e+03  3.377887e+03 0.0022 0.0 9.0
22  1 1 2   0   0  2.047529e+03  5.497062e+01  4.264775e+02  2.092195e+03 0.0 0.0 9.0
#pdf 2 21 2.469643e-01 5.945868e-01 5000.0 3.177012e-01 3.047032e-02
</event>
<event>
4 7 1.0 5000.0 7.905138e-03 7.739137e-02
21 -1 0 0 103 101  0.000000e+00  0.000000e+00  3.783337e+03  3.783337e+03 0.0 0.0 9.0
 2 -1 0 0 101   0  0.000000e+00  0.000000e+00 -1.663537e+03  1.663537e+03 0.0 0.0 9.0
 2  1 1 2 103   0  3.429350e+02  9.340007e+02 -1.440189e+03  1.750459e+03 0.0022 0.0 9.0
22  1 1 2   0   0 -3.429350e+02 -9.340007e+02  3.559989e+03  3.696415e+03 0.0 0.0 9.0
#pdf 21 2 5.820518e-01 2.559288e-01 5000.0 8.513968e-04 6.199255e-02
</event>
<event>
4 7 1.0 5000.0 7.905138e-03 7.739137e-02
 2 -1 0 0 101   0  0.000000e+00  0.000000e+00  3.989721e+03  3.989721e+03 0.0 0.0 9.0
21 -1 0 0 103 101  0.000000e+00  0.000000e+00 -1.464071e+03  1.464071e+03 0.0 0.0 9.0
22  1 1 2   0   0 -1.784831e+03 -1.160365e+03 -2.813765e+01  2.129052e+03 0.0 0.0 9.0
 2  1 1 2 103   0  1.784831e+03  1.160365e+03  2.553788e+03  3.324741e+03 0.0022 0.0 9.0
#pdf 2 21 6.138032e-01 2.252417e-01 5000.0 2.504294e-02 3.472394e-01
</event>
<event>
4 7 1.0 5000.0 7.905138e-03 7.739137e-02
 2 -1 0 0 101   0  0.000000e+00  0.000000e+00  2.390216e+03  2.390216e+03 0.0 0.0 9.0
21 -1 0 0 103 101  0.000000e+00  0.000000e+00 -2.609894e+03  2.609894e+03 0.0 0.0 9.0
 2  1 1 2 103   0 -1.474882e+03 -8.202000e+02  1.733192e+03  2.419082e+03 0.0022 0.0 9.0
22  1 1 2   0   0  1.474882e+03  8.202000e+02 -1.952870e+03  2.581028e+03 0.0 0.0 9.0
#pdf 2 21 3.677256e-01 4.015222e-01 5000.0 1.732532e-01 1.412176e-01
</event>
<event>
4 7 1.0 5000.0 7.905138e-03 7.739137e-02
 2 -1 0 0 101   0  0.000000e+00  0.000000e+00  1.602378e+03  1.602378e+03 0.0 0.0 9.0
21 -1 0 0 103 101  0.000000e+00  0.000000e+00 -3.721279e+03  3.721279e+03 0.0 0.0 9.0
 2  1 1 2 103   0 -1.088809e+03  2.078112e+03 -1.797834e+03  2.955717e+03 0.0022 0.0 9.0
22  1 1 2   0   0  1.088809e+03 -2.078112e+03 -3.210671e+02  2.367940e+03 0.0 0.0 9.0
#pdf 2 21 2.465197e-01 5.725044e-01 5000.0 3.183053e-01 3.772767e-02
</event>
<event>
4 7 1.0 5000.0 7.905138e-03 7.739137e-02
21 -1 0 0 103 101  0.000000e+00  0.000000e+00  2.419696e+03  2.419696e+03 0.0 0.0 9.0
 2 -1 0 0 101   0  0.000000e+00  0.000000e+00 -2.969760e+03  2.969760e+03 0.0 0.0 9.0
 2  1 1 2 103   0  1.104194e+03 -2.098558e+03 -1.531683e+03  2.822985e+03 0.0022 0.0 9.0
22  1 1 2   0   0 -1.104194e+03  2.098558e+03  9.816195e+02  2.566470e+03 0.0 0.0 9.0
#pdf 21 2 3.722609e-01 4.568861e-01 5000.0 1.481885e-02 5.040369e-03
</event>
<event>
4 7 1.0 5000.0 7.905138e-03 7.739137e-02
21 -1 0 0 103 101  0.000000e+00  0.000000e+00  2.502552e+03  2.502552e+03 0.0 0.0 9.0
 2 -1 0 0 101   0  0.000000e+00  0.000000e+00 -2.552091e+03  2.552091e+03 0.0 0.0 9.0
 2  1 1 2 103   0 -1.099080e+03  2.113096e+03  8.200127e+02  2.519042e+03 0.0022 0.0 9.0
22  1 1 2   0   0  1.099080e+03 -2.113096e+03 -8.695519e+02  2.535601e+03 0.0 0.0 9.0
#pdf 21 2 3.850080e-01 3.926294e-01 5000.0 1.265552e-02 1.149680e-02
</event>
<event>
4 7 1.0 5000.0 7.905138e-03 7.739137e-02
21 -1 0 0 103 101  0.000000e+00  0.000000e+00  1.691961e+03  1.691961e+03 0.0 0.0 9.0
 2 -1 0 0 101   0  0.000000e+00  0.000000e+00 -3.587709e+03  3.587709e+03 0.0 0.0 9.0
22  1 1 2   0   0  5.867374e+02 -7.009585e+02 -3.399292e+03  3.520055e+03 0.0 0.0 9.0
 2  1 1 2 103   0 -5.867374e+02  7.009585e+02  1.503544e+03  1.759616e+03 0.0022 0.0 9.0
#pdf 21 2 2.603017e-01 5.519553e-01 5000.0 5.868587e-02 1.342199e-03
</event>
<event>
4 7 1.0 5000.0 7.905138e-03 7.739137e-02
21 -1 0 0 103 101  0.000000e+00  0.000000e+00  4.239609e+03  4.239609e+03 0.0 0.0 9.0
 2 -1 0 0 101   0  0.000000e+00  0.000000e+00 -1.481362e+03  1.481362e+03 0.0 0.0 9.0
 2  1 1 2 103   0  5.458501e+02 -2.082835e+03 -8.449843e+01  2.154830e+03 0.0022 0.0 9.0
22  1 1 2   0   0 -5.458501e+02  2.082835e+03  2.842745e+03  3.566140e+03 0.0 0.0 9.0
#pdf 21 2 6.522475e-01 2.279018e-01 5000.0 2.663078e-04 8.793511e-02
</event>
<event>
4 7 1.0 5000.0 7.905138e-03 7.739137e-02
 2 -1 0 0 101   0  0.000000e+00  0.000000e+00  2.303021e+03  2.303021e+03 0.0 0.0 9.0
21 -1 0 0 103 101  0.000000e+00  0.000000e+00 -2.654216e+03  2.654216e+03 0.0 0.0 9.0
 2  1 1 2 103   0  1.125554e+03  1.821751e+03  1.063261e+03  2.390852e+03 0.0022 0.0 9.0
22  1 1 2   0   0 -1.125554e+03 -1.821751e+03 -1.414456e+03  2.566385e+03 0.0 0.0 9.0
#pdf 2 21 3.543110e-01 4.083409e-01 5000.0 1.870903e-01 1.352355e-01
</event>
<event>
4 7 1.0 5000.0 7.905138e-03 7.739137e-02
 2 -1 0 0 101   0  0.000000e+00  0.000000e+00  3.907336e+03  3.907336e+03 0.0 0.0 9.0
21 -1 0 0 103 101  0.000000e+00  0.000000e+00 -1.542303e+03  1.542303e+03 0.0 0.0 9.0
 2  1 1 2 103   0  1.265835e+03 -1.664113e+02 -1.144794e+03  1.714814e+03 0.0022 0.0 9.0
22  1 1 2   0   0 -1.265835e+03  1.664113e+02  3.509827e+03  3.734825e+03 0.0 0.0 9.0
#pdf 2 21 6.011285e-01 2.372774e-01 5000.0 2.853593e-02 3.307670e-01
</event>
<event>
4 7 1.0 5000.0 7.905138e-03 7.739137e-02
21 -1 0 0 103 101  0.000000e+00  0.000000e+00  2.188482e+03  2.188482e+03 0.0 0.0 9.0
 2 -1 0 0 101   0  0.000000e+00  0.000000e+00 -2.868398e+03  2.868398e+03 0.0 0.0 9.0
22  1 1 2   0   0  1.067893e+02 -2.495851e+03 -1.464657e+02  2.502424e+03 0.0 0.0 9.0
 2  1 1 2 103   0 -1.067893e+02  2.495851e+03 -5.334503e+02  2.554456e+03 0.0022 0.0 9.0
#pdf 21 2 3.366895e-01 4.412920e-01 5000.0 2.297813e-02 6.185366e-03
</event>
<event>
4 7 1.0 5000.0 7.905138e-03 7.739137e-02
 2 -1 0 0 101   0  0.000000e+00  0.000000e+00  2.558408e+03  2.558408e+03 0.0 0.0 9.0
21 -1 0 0 103 101  0.000000e+00  0.000000e+00 -2.410308e+03  2.410308e+03 0.0 0.0 9.0
 2  1 1 2 103   0 -8.262944e+02 -8.063520e+02  2.273569e+03  2.549918e+03 0.0022 0.0 9.0
22  1 1 2   0   0  8.262944e+02  8.063520e+02 -2.125469e+03  2.418798e+03 0.0 0.0 9.0
#pdf 2 21 3.936013e-01 3.708166e-01 5000.0 1.483746e-01 1.701510e-01
</event>
<event>
4 7 1.0 5000.0 7.905138e-03 7.739137e-02
 2 -1 0 0 101   0  0.000000e+00  0.000000e+00  2.549078e+03  2.549078e+03 0.0 0.0 9.0
21 -1 0 0 103 101  0.000000e+00  0.000000e+00 -2.446262e+03  2.446262e+03 0.0 0.0 9.0
22  1 1 2   0   0  1.654413e+03 -1.857092e+03 -1.718969e+02  2.493074e+03 0.0 0.0 9.0
 2  1 1 2 103   0 -1.654413e+03  1.857092e+03  2.747131e+02  2.502266e+03 0.0022 0.0 9.0
#pdf 2 21 3.921659e-01 3.763480e-01 5000.0 1.496937e-01 1.647040e-01
</event>
<event>
4 7 1.0 5000.0 7.905138e-03 7.739137e-02
21 -1 0 0 103 101  0.000000e+00  0.000000e+00  4.040171e+03  4.040171e+03 0.0 0.0 9.0
 2 -1 0 0 101   0  0.000000e+00  0.000000e+00 -1.583002e+03  1.583002e+03 0.0 0.0 9.0
22  1 1 2   0   0  1.809915e+03  6.102840e+01  3.191111e+03  3.669156e+03 0.0 0.0 9.0
 2  1 1 2 103   0 -1.809915e+03 -6.102840e+01 -7.339414e+02  1.954018e+03 0.0022 0.0 9.0
#pdf 21 2 6.215648e-01 2.435388e-01 5000.0 4.515293e-04 7.230682e-02
</event>
<event>
4 7 1.0 5000.0 7.905138e-03 7.739137e-02
 2 -1 0 0 101   0  0.000000e+00  0.000000e+00  3.057816e+03  3.057816e+03 0.0 0.0 9.0
21 -1 0 0 103 101  0.000000e+00  0.000000e+00 -2.062314e+03  2.062314e+03 0.0 0.0 9.0
22  1 1 2   0   0 -3.235934e+02  1.741218e+03  2.312731e+03  2.912950e+03 0.0 0.0 9.0
 2  1 1 2 103   0  3.235934e+02 -1.741218e+03 -1.317229e+03  2.207180e+03 0.0022 0.0 9.0
#pdf 2 21 4.704333e-01 3.172791e-01 5000.0 8.827366e-02 2.284335e-01
</event>
<event>
4 7 1.0 5000.0 7.905138e-03 7.739137e-02
21 -1 0 0 103 101  0.000000e+00  0.000000e+00  3.718287e+03  3.718287e+03 0.0 0.0 9.0
 2 -1 0 0 101   0  0.000000e+00  0.000000e+00 -1.651979e+03  1.651979e+03 0.0 0.0 9.0
 2  1 1 2 103   0  1.922378e+03  8.782207e+02  2.435623e+03  3.224759e+03 0.0022 0.0 9.0
22  1 1 2   0   0 -1.922378e+03 -8.782207e+02 -3.693149e+02  2.145507e+03 0.0 0.0 9.0
#pdf 21 2 5.720442e-01 2.541506e-01 5000.0 9.931382e-04 6.338714e-02
</event>
<event>
4 7 1.0 5000.0 7.905138e-03 7.739137e-02
21 -1 0 0 103 101  0.000000e+00  0.000000e+00  2.409495e+03  2.409495e+03 0.0 0.0 9.0
 2 -1 0 0 101   0  0.000000e+00  0.000000e+00 -2.624998e+03  2.624998e+03 0.0 0.0 9.0
22  1 1 2   0   0 -1.349319e+03  9.072062e+02 -2.028166e+03  2.599451e+03 0.0 0.0 9.0
 2  1 1 2 103   0  1.349319e+03 -9.072062e+02  1.812663e+03  2.435043e+03 0.0022 0.0 9.0
#pdf 21 2 3.706915e-01 4.038459e-01 5000.0 1.510582e-02 9.984044e-03
</event>
<event>
4 7 1.0 5000.0 7.905138e-03 7.739137e-02
 2 -1 0 0 101   0  0.000000e+00  0.000000e+00  1.502863e+03  1.502863e+03 0.0 0.0 9.0
21 -1 0 0 103 101  0.000000e+00  0.000000e+00 -4.162387e+03  4.162387e+03 0.0 0.0 9.0
22  1 1 2   0   0  1.004290e+03  5.178416e+02  1.197311e+03  1.646303e+03 0.0 0.0 9.0
 2  1 1 2 103   0 -1.004290e+03 -5.178416e+02 -3.856835e+03  4.018947e+03 0.0022 0.0 9.0
#pdf 2 21 2.312097e-01 6.403673e-01 5000.0 3.390707e-01 1.875194e-02
</event>
<event>
4 7 1.0 5000.0 7.905138e-03 7.739137e-02
21 -1 0 0 103 101  0.000000e+00  0.000000e+00  3.472734e+03  3.472734e+03 0.0 0.0 9.0
 2 -1 0 0 101   0  0.000000e+00  0.000000e+00 -1.392057e+03  1.392057e+03 0.0 0.0 9.0
 2  1 1 2 103   0 -9.674837e+02 -1.318463e+03 -5.855248e+02  1.737012e+03 0.0022 0.0 9.0
22  1 1 2   0   0  9.674837e+02  1.318463e+03  2.666202e+03  3.127779e+03 0.0 0.0 9.0
#pdf 21 2 5.342668e-01 2.141626e-01 5000.0 1.739570e-03 1.048200e-01
</event>
<event>
4 7 1.0 5000.0 7.905138e-03 7.739137e-02
21 -1 0 0 103 101  0.000000e+00  0.000000e+00  2.941786e+03  2.941786e+03 0.0 0.0 9.0
 2 -1 0 0 101   0  0.000000e+00  0.000000e+00 -2.088889e+03  2.088889e+03 0.0 0.0 9.0
22  1 1 2   0   0  1.986533e+03 -7.106379e+02  1.747005e+03  2.739223e+03 0.0 0.0 9.0
 2  1 1 2 103   0 -1.986533e+03  7.106379e+02 -8.941087e+02  2.291451e+03 0.0022 0.0 9.0
#pdf 21 2 4.525824e-01 3.213676e-01 5000.0 5.335345e-03 2.772464e-02
</event>
<event>
4 7 1.0 5000.0 7.905138e-03 7.739137e-02
21 -1 0 0 103 101  0.000000e+00  0.000000e+00  2.590969e+03  2.590969e+03 0.0 0.0 9.0
 2 -1 0 0 101   0  0.000000e+00  0.000000e+00 -2.336913e+03  2.336913e+03 0.0 0.0 9.0
 2  1 1 2 103   0  2.294149e+03  3.145511e+02 -7.064320e+02  2.420972e+03 0.0022 0.0 9.0
22  1 1 2   0   0 -2.294149e+03 -3.145511e+02  9.604884e+02  2.506910e+03 0.0 0.0 9.0
#pdf 21 2 3.986107e-01 3.595251e-01 5000.0 1.066446e-02 1.734907e-02
</event>
<event>
4 7 1.0 5000.0 7.905138e-03 7.739137e-02
 2 -1 0 0 101   0  0.000000e+00  0.000000e+00  1.854528e+03  1.854528e+03 0.0 0.0 9.0
21 -1 0 0 103 101  0.000000e+00  0.000000e+00 -3.368132e+03  3.368132e+03 0.0 0.0 9.0
 2  1 1 2 103   0  1.614015e+03 -8.472307e+02  1.029679e+03  2.093581e+03 0.0022 0.0 9.0
22  1 1 2   0   0 -1.614015e+03  8.472307e+02 -2.543284e+03  3.129079e+03 0.0 0.0 9.0
#pdf 2 21 2.853119e-01 5.181742e-01 5000.0 2.675160e-01 6.085665e-02
</event>
<event>
4 7 1.0 5000.0 7.905138e-03 7.739137e-02
 2 -1 0 0 101   0  0.000000e+00  0.000000e+00  2.869237e+03  2.869237e+03 0.0 0.0 9.0
21 -1 0 0 103 101  0.000000e+00  0.000000e+00 -2.183973e+03  2.183973e+03 0.0 0.0 9.0
 2  1 1 2 103   0 -1.344874e+03 -1.138421e+03  2.137312e+03  2.769981e+03 0.0022 0.0 9.0
22  1 1 2   0   0  1.344874e+03  1.138421e+03 -1.452049e+03  2.283229e+03 0.0 0.0 9.0
#pdf 2 21 4.414210e-01 3.359959e-01 5000.0 1.085662e-01 2.069738e-01
</event>
<event>
4 7 1.0 5000.0 7.905138e-03 7.739137e-02
21 -1 0 0 103 101  0.000000e+00  0.000000e+00  2.270215e+03  2.270215e+03 0.0 0.0 9.0
 2 -1 0 0 101   0  0.000000e+00  0.000000e+00 -2.675888e+03  2.675888e+03 0.0 0.0 9.0
22  1 1 2   0   0 -5.975327e+02 -2.385654e+03 -3.660217e+02  2.486436e+03 0.0 0.0 9.0
 2  1 1 2 103   0  5.975327e+02  2.385654e+03 -3.965085e+01  2.459667e+03 0.0022 0.0 9.0
#pdf 21 2 3.492638e-01 4.116750e-01 5000.0 1.969749e-02 9.038989e-03
</event>
<event>
4 7 1.0 5000.0 7.905138e-03 7.739137e-02
21 -1 0 0 103 101  0.000000e+00  0.000000e+00  1.524433e+03  1.524433e+03 0.0 0.0 9.0
 2 -1 0 0 101   0  0.000000e+00  0.000000e+00 -4.172529e+03  4.172529e+03 0.0 0.0 9.0
 2  1 1 2 103   0  4.352244e+02 -1.090213e+03 -3.845172e+03  4.020365e+03 0.0022 0.0 9.0
22  1 1 2   0   0 -4.352244e+02  1.090213e+03  1.197077e+03  1.676597e+03 0.0 0.0 9.0
#pdf 21 2 2.345282e-01 6.419275e-01 5000.0 8.094334e-02 3.191931e-04
</event>
<event>
4 7 1.0 5000.0 7.905138e-03 7.739137e-02
 2 -1 0 0 101   0  0.000000e+00  0.000000e+00  3.650188e+03  3.650188e+03 0.0 0.0 9.0
21 -1 0 0 103 101  0.000000e+00  0.000000e+00 -1.765604e+03  1.765604e+03 0.0 0.0 9.0
 2  1 1 2 103   0  1.576530e+03  1.674554e+03 -2.041655e+02  2.308953e+03 0.0022 0.0 9.0
22  1 1 2   0   0 -1.576530e+03 -1.674554e+03  2.088749e+03  3.106840e+03 0.0 0.0 9.0
#pdf 2 21 5.615674e-01 2.716314e-01 5000.0 4.177261e-02 2.850641e-01
</event>
<event>
4 7 1.0 5000.0 7.905138e-03 7.739137e-02
 2 -1 0 0 101   0  0.000000e+00  0.000000e+00  2.153529e+03  2.153529e+03 0.0 0.0 9.0
21 -1 0 0 103 101  0.000000e+00  0.000000e+00 -2.829006e+03  2.829006e+03 0.0 0.0 9.0
22  1 1 2   0   0 -1.330559e+03  1.818894e+03  6.784114e+02  2.353509e+03 0.0 0.0 9.0
 2  1 1 2 103   0  1.330559e+03 -1.818894e+03 -1.353888e+03  2.629026e+03 0.0022 0.0 9.0
#pdf 2 21 3.313122e-01 4.352316e-01 5000.0 2.122359e-01 1.132659e-01
</event>
<event>
4 7 1.0 5000.0 7.905138e-03 7.739137e-02
21 -1 0 0 103 101  0.000000e+00  0.000000e+00  2.819325e+03  2.819325e+03 0.0 0.0 9.0
 2 -1 0 0 101   0  0.000000e+00  0.000000e+00 -2.223877e+03  2.223877e+03 0.0 0.0 9.0
22  1 1 2   0   0  1.629553e+03  1.166129e+03 -1.214363e+03  2.343070e+03 0.0 0.0 9.0
 2  1 1 2 103   0 -1.629553e+03 -1.166129e+03  1.809811e+03  2.700132e+03 0.0022 0.0 9.0
#pdf 21 2 4.337423e-01 3.421349e-01 5000.0 6.817233e-03 2.149406e-02
</event>
<event>
4 7 1.0 5000.0 7.905138e-03 7.739137e-02
 2 -1 0 0 101   0  0.000000e+00  0.000000e+00  3.784606e+03  3.784606e+03 0.0 0.0 9.0
21 -1 0 0 103 101  0.000000e+00  0.000000e+00 -1.689009e+03  1.689009e+03 0.0 0.0 9.0
22  1 1 2   0   0 -2.018417e+03 -1.408170e+03  4.210052e+02  2.496837e+03 0.0 0.0 9.0
 2  1 1 2 103   0  2.018417e+03  1.408170e+03  1.674592e+03  2.976778e+03 0.0022 0.0 9.0
#pdf 2 21 5.822471e-01 2.598476e-01 5000.0 3.438489e-02 3.005044e-01
</event>
<event>
4 7 1.0 5000.0 7.905138e-03 7.739137e-02
 2 -1 0 0 101   0  0.000000e+00  0.000000e+00  2.755087e+03  2.755087e+03 0.0 0.0 9.0
21 -1 0 0 103 101  0.000000e+00  0.000000e+00 -2.270401e+03  2.270401e+03 0.0 0.0 9.0
 2  1 1 2 103   0 -7.723372e+02  1.087011e+02  2.629779e+03  2.743002e+03 0.0022 0.0 9.0
22  1 1 2   0   0  7.723372e+02 -1.087011e+02 -2.145093e+03  2.282487e+03 0.0 0.0 9.0
#pdf 2 21 4.238596e-01 3.492925e-01 5000.0 1.222358e-01 1.924260e-01
</event>
<event>
4 7 1.0 5000.0 7.905138e-03 7.739137e-02
21 -1 0 0 103 101  0.000000e+00  0.000000e+00  2.182137e+03  2.182137e+03 0.0 0.0 9.0
 2 -1 0 0 101   0  0.000000e+00  0.000000e+00 -2.799627e+03  2.799627e+03 0.0 0.0 9.0
22  1 1 2   0   0 -1.036211e+03 -7.613644e+02  1.818526e+03  2.227206e+03 0.0 0.0 9.0
 2  1 1 2 103   0  1.036211e+03  7.613644e+02 -2.436017e+03  2.754557e+03 0.0022 0.0 9.0
#pdf 21 2 3.357133e-01 4.307118e-01 5000.0 2.325627e-02 7.086198e-03
</event>
<event>
4 7 1.0 5000.0 7.905138e-03 7.739137e-02
21 -1 0 0 103 101  0.000000e+00  0.000000e+00  3.043897e+03  3.043897e+03 0.0 0.0 9.0
 2 -1 0 0 101   0  0.000000e+00  0.000000e+00 -2.073883e+03  2.073883e+03 0.0 0.0 9.0
22  1 1 2   0   0  2.157349e+03 -4.982413e+02 -7.244720e+02  2.329648e+03 0.0 0.0 9.0
 2  1 1 2 103   0 -2.157349e+03  4.982413e+02  1.694486e+03  2.788132e+03 0.0022 0.0 9.0
#pdf 21 2 4.682918e-01 3.190590e-01 5000.0 4.332179e-03 2.851995e-02
</event>
<event>
4 7 1.0 5000.0 7.905138e-03 7.739137e-02
21 -1 0 0 103 101  0.000000e+00  0.000000e+00  3.403915e+03  3.403915e+03 0.0 0.0 9.0
 2 -1 0 0 101   0  0.000000e+00  0.000000e+00 -1.754743e+03  1.754743e+03 0.0 0.0 9.0
22  1 1 2   0   0 -2.223602e+03 -3.656184e+02 -1.738049e+02  2.260153e+03 0.0 0.0 9.0
 2  1 1 2 103   0  2.223602e+03  3.656184e+02  1.822977e+03  2.898505e+03 0.0022 0.0 9.0
#pdf 21 2 5.236792e-01 2.699604e-01 5000.0 2.023672e-03 5.207083e-02
</event>
<event>
4 7 1.0 5000.0 7.905138e-03 7.739137e-02
21 -1 0 0 103 101  0.000000e+00  0.000000e+00  2.007440e+03  2.007440e+03 0.0 0.0 9.0
 2 -1 0 0 101   0  0.000000e+00  0.000000e+00 -3.261063e+03  3.261063e+03 0.0 0.0 9.0
22  1 1 2   0   0 -2.066043e+03  4.033543e+01 -2.180143e+03  3.003862e+03 0.0 0.0 9.0
 2  1 1 2 103   0  2.066043e+03 -4.033543e+01  9.265201e+02  2.264641e+03 0.0022 0.0 9.0
#pdf 21 2 3.088369e-01 5.017020e-01 5000.0 3.235675e-02 2.752658e-03
</event>
<event>
4 7 1.0 5000.0 7.905138e-03 7.739137e-02
21 -1 0 0 103 101  0.000000e+00  0.000000e+00  2.456781e+03  2.456781e+03 0.0 0.0 9.0
 2 -1 0 0 101   0  0.000000e+00  0.000000e+00 -2.546634e+03  2.546634e+03 0.0 0.0 9.0
22  1 1 2   0   0 -1.868048e+03  8.382543e+02 -1.481908e+03  2.527514e+03 0.0 0.0 9.0
 2  1 1 2 103   0  1.868048e+03 -8.382543e+02  1.392055e+03  2.475902e+03 0.0022 0.0 9.0
#pdf 21 2 3.779663e-01 3.917899e-01 5000.0 1.382056e-02 1.161881e-02
</event>
<event>
4 7 1.0 5000.0 7.905138e-03 7.739137e-02
21 -1 0 0 103 101  0.000000e+00  0.000000e+00  3.407387e+03  3.407387e+03 0.0 0.0 9.0
 2 -1 0 0 101   0  0.000000e+00  0.000000e+00 -1.829830e+03  1.829830e+03 0.0 0.0 9.0
 2  1 1 2 103   0  3.412268e+02 -2.428827e+03  2.976694e+02  2.470676e+03 0.0022 0.0 9.0
22  1 1 2   0   0 -3.412268e+02  2.428827e+03  1.279888e+03  2.766541e+03 0.0 0.0 9.0
#pdf 21 2 5.242134e-01 2.815123e-01 5000.0 2.008457e-03 4.517444e-02
</event>
<event>
4 7 1.0 5000.0 7.905138e-03 7.739137e-02
 2 -1 0 0 101   0  0.000000e+00  0.000000e+00  2.311082e+03  2.311082e+03 0.0 0.0 9.0
21 -1 0 0 103 101  0.000000e+00  0.000000e+00 -2.690015e+03  2.690015e+03 0.0 0.0 9.0
 2  1 1 2 103   0  9.608021e+02  1.320155e+03 -2.079281e+03  2.643740e+03 0.0022 0.0 9.0
22  1 1 2   0   0 -9.608021e+02 -1.320155e+03  1.700349e+03  2.357358e+03 0.0 0.0 9.0
#pdf 2 21 3.555512e-01 4.138485e-01 5000.0 1.857856e-01 1.305264e-01
</event>
<event>
4 7 1.0 5000.0 7.905138e-03 7.739137e-02
21 -1 0 0 103 101  0.000000e+00  0.000000e+00  1.984770e+03  1.984770e+03 0.0 0.0 9.0
 2 -1 0 0 101   0  0.000000e+00  0.000000e+00 -3.105751e+03  3.105751e+03 0.0 0.0 9.0
 2  1 1 2 103   0 -1.361920e+03  3.004790e+02  1.545242e+03  2.081558e+03 0.0022 0.0 9.0
22  1 1 2   0   0  1.361920e+03 -3.004790e+02 -2.666222e+03  3.008962e+03 0.0 0.0 9.0
#pdf 21 2 3.053492e-01 4.778078e-01 5000.0 3.376854e-02 3.813769e-03
</event>
<event>
4 7 1.0 5000.0 7.905138e-03 7.739137e-02
21 -1 0 0 103 101  0.000000e+00  0.000000e+00  2.698641e+03  2.698641e+03 0.0 0.0 9.0
 2 -1 0 0 101   0  0.000000e+00  0.000000e+00 -1.775119e+03  1.775119e+03 0.0 0.0 9.0
22  1 1 2   0   0 -1.087001e+03  5.211352e+02 -1.405268e+03  1.851467e+03 0.0 0.0 9.0
 2  1 1 2 103   0  1.087001e+03 -5.211352e+02  2.328790e+03  2.622293e+03 0.0022 0.0 9.0
#pdf 21 2 4.151756e-01 2.730952e-01 5000.0 8.645361e-03 5.010252e-02
</event>
<event>
4 7 1.0 5000.0 7.905138e-03 7.739137e-02
 2 -1 0 0 101   0  0.000000e+00  0.000000e+00  1.475978e+03  1.475978e+03 0.0 0.0 9.0
21 -1 0 0 103 101  0.000000e+00  0.000000e+00 -4.223175e+03  4.223175e+03 0.0 0.0 9.0
22  1 1 2   0   0  1.072211e+03  2.174986e+03 -6.953685e+02  2.522645e+03 0.0 0.0 9.0
 2  1 1 2 103   0 -1.072211e+03 -2.174986e+03 -2.051828e+03  3.176507e+03 0.0022 0.0 9.0
#pdf 2 21 2.270735e-01 6.497192e-01 5000.0 3.447357e-01 1.684798e-02
</event>
<event>
4 7 1.0 5000.0 7.905138e-03 7.739137e-02
21 -1 0 0 103 101  0.000000e+00  0.000000e+00  3.813640e+03  3.813640e+03 0.0 0.0 9.0
 2 -1 0 0 101   0  0.000000e+00  0.000000e+00 -1.725522e+03  1.725522e+03 0.0 0.0 9.0
 2  1 1 2 103   0  2.085144e+03 -7.523538e+02  2.437881e+03  3.295015e+03 0.0022 0.0 9.0
22  1 1 2   0   0 -2.085144e+03  7.523538e+02 -3.497630e+02  2.244147e+03 0.0 0.0 9.0
#pdf 21 2 5.867138e-01 2.654650e-01 5000.0 7.919330e-04 5.503800e-02
</event>
<event>
4 7 1.0 5000.0 7.905138e-03 7.739137e-02
21 -1 0 0 103 101  0.000000e+00  0.000000e+00  2.487522e+03  2.487522e+03 0.0 0.0 9.0
 2 -1 0 0 101   0  0.000000e+00  0.000000e+00 -2.514434e+03  2.514434e+03 0.0 0.0 9.0
 2  1 1 2 103   0 -1.471746e+02  8.276581e+02  2.342005e+03  2.488305e+03 0.0022 0.0 9.0
22  1 1 2   0   0  1.471746e+02 -8.276581e+02 -2.368916e+03  2.513651e+03 0.0 0.0 9.0
#pdf 21 2 3.826958e-01 3.868360e-01 5000.0 1.302892e-02 1.236721e-02
</event>
<event>
4 7 1.0 5000.0 7.905138e-03 7.739137e-02
21 -1 0 0 103 101  0.000000e+00  0.000000e+00  1.627327e+03  1.627327e+03 0.0 0.0 9.0
 2 -1 0 0 101   0  0.000000e+00  0.000000e+00 -3.426030e+03  3.426030e+03 0.0 0.0 9.0
22  1 1 2   0   0  5.315420e+01  2.010228e+03  4.248851e+02  2.055327e+03 0.0 0.0 9.0
 2  1 1 2 103   0 -5.315420e+01 -2.010228e+03 -2.223588e+03  2.998030e+03 0.0022 0.0 9.0
#pdf 21 2 2.503580e-01 5.270816e-01 5000.0 6.644303e-02 1.928563e-03
</event>
<event>
4 7 1.0 5000.0 7.905138e-03 7.739137e-02
 2 -1 0 0 101   0  0.000000e+00  0.000000e+00  3.647688e+03  3.647688e+03 0.0 0.0 9.0
21 -1 0 0 103 101  0.000000e+00  0.000000e+00 -1.651559e+03  1.651559e+03 0.0 0.0 9.0
 2  1 1 2 103   0  1.308026e+03  1.950322e+03  2.273732e+02  2.359318e+03 0.0022 0.0 9.0
22  1 1 2   0   0 -1.308026e+03 -1.950322e+03  1.768755e+03  2.939929e+03 0.0 0.0 9.0
#pdf 2 21 5.611827e-01 2.540861e-01 5000.0 4.192009e-02 3.081343e-01
</event>
<event>
4 7 1.0 5000.0 7.905138e-03 7.739137e-02
 2 -1 0 0 101   0  0.000000e+00  0.000000e+00  1.520005e+03  1.520005e+03 0.0 0.0 9.0
21 -1 0 0 103 101  0.000000e+00  0.000000e+00 -4.092307e+03  4.092307e+03 0.0 0.0 9.0
 2  1 1 2 103   0  8.235440e+02  2.103483e+03 -2.475533e+03  3.351288e+03 0.0022 0.0 9.0
22  1 1 2   0   0 -8.235440e+02 -2.103483e+03 -9.676889e+01  2.261024e+03 0.0 0.0 9.0
#pdf 2 21 2.338470e-01 6.295857e-01 5000.0 3.354557e-01 2.114288e-02
</event>
<event>
4 7 1.0 5000.0 7.905138e-03 7.739137e-02
 2 -1 0 0 101   0  0.000000e+00  0.000000e+00  3.776062e+03  3.776062e+03 0.0 0.0 9.0
21 -1 0 0 103 101  0.000000e+00  0.000000e+00 -1.646450e+03  1.646450e+03 0.0 0.0 9.0
22  1 1 2   0   0 -9.848131e+02  1.647269e+03  2.795651e+03  3.391020e+03 0.0 0.0 9.0
 2  1 1 2 103   0  9.848131e+02 -1.647269e+03 -6.660386e+02  2.031492e+03 0.0022 0.0 9.0
#pdf 2 21 5.809326e-01 2.533000e-01 5000.0 3.482263e-02 3.091816e-01
</event>
<event>
4 7 1.0 5000.0 7.905138e-03 7.739137e-02
 2 -1 0 0 101   0  0.000000e+00  0.000000e+00  4.376281e+03  4.376281e+03 0.0 0.0 9.0
21 -1 0 0 103 101  0.000000e+00  0.000000e+00 -1.726344e+03  1.726344e+03 0.0 0.0 9.0
22  1 1 2   0   0 -1.626837e+03 -4.224348e+02 -1.089365e+03  2.002939e+03 0.0 0.0 9.0
 2  1 1 2 103   0  1.626837e+03  4.224348e+02  3.739301e+03  4.099686e+03 0.0022 0.0 9.0
#pdf 2 21 6.732740e-01 2.655915e-01 5000.0 1.268509e-02 2.929516e-01
</event>
<event>
4 7 1.0 5000.0 7.905138e-03 7.739137e-02
21 -1 0 0 103 101  0.000000e+00  0.000000e+00  1.466246e+03  1.466246e+03 0.0 0.0 9.0
 2 -1 0 0 101   0  0.000000e+00  0.000000e+00 -4.201720e+03  4.201720e+03 0.0 0.0 9.0
22  1 1 2   0   0 -2.117273e+03  1.098938e+03 -5.847718e+02  2.456108e+03 0.0 0.0 9.0
 2  1 1 2 103   0  2.117273e+03 -1.098938e+03 -2.150702e+03  3.211858e+03 0.0022 0.0 9.0
#pdf 21 2 2.255763e-01 6.464184e-01 5000.0 9.057727e-02 2.949682e-04
</event>
<event>
4 7 1.0 5000.0 7.905138e-03 7.739137e-02
21 -1 0 0 103 101  0.000000e+00  0.000000e+00  3.386382e+03  3.386382e+03 0.0 0.0 9.0
 2 -1 0 0 101   0  0.000000e+00  0.000000e+00 -1.558308e+03  1.558308e+03 0.0 0.0 9.0
22  1 1 2   0   0  1.673370e+03  1.516259e+03  1.367874e+03  2.640131e+03 0.0 0.0 9.0
 2  1 1 2 103   0 -1.673370e+03 -1.516259e+03  4.601996e+02  2.304559e+03 0.0022 0.0 9.0
#pdf 21 2 5.209818e-01 2.397397e-01 5000.0 2.102259e-03 7.586402e-02
</event>
<event>
4 7 1.0 5000.0 7.905138e-03 7.739137e-02
21 -1 0 0 103 101  0.000000e+00  0.000000e+00  2.287532e+03  2.287532e+03 0.0 0.0 9.0
 2 -1 0 0 101   0  0.000000e+00  0.000000e+00 -2.879800e+03  2.879800e+03 0.0 0.0 9.0
22  1 1 2   0   0  1.945721e+03  7.847492e+02 -1.784446e+03  2.754253e+03 0.0 0.0 9.0
 2  1 1 2 103   0 -1.945721e+03 -7.847492e+02  1.192179e+03  2.413079e+03 0.0022 0.0 9.0
#pdf 21 2 3.519281e-01 4.430461e-01 5000.0 1.906013e-02 6.043915e-03
</event>
<event>
4 7 1.0 5000.0 7.905138e-03 7.739137e-02
 2 -1 0 0 101   0  0.000000e+00  0.000000e+00  2.174287e+03  2.174287e+03 0.0 0.0 9.0
21 -1 0 0 103 101  0.000000e+00  0.000000e+00 -2.789472e+03  2.789472e+03 0.0 0.0 9.0
22  1 1 2   0   0 -8.722036e+01  2.093371e+03 -1.611985e+03  2.643540e+03 0.0 0.0 9.0
 2  1 1 2 103   0  8.722036e+01 -2.093371e+03  9.967997e+02  2.320219e+03 0.0022 0.0 9.0
#pdf 2 21 3.345057e-01 4.291496e-01 5000.0 2.086392e-01 1.180030e-01
</event>
<event>
4 7 1.0 5000.0 7.905138e-03 7.739137e-02
 2 -1 0 0 101   0  0.000000e+00  0.000000e+00  2.697286e+03  2.697286e+03 0.0 0.0 9.0
21 -1 0 0 103 101  0.000000e+00  0.000000e+00 -2.351798e+03  2.351798e+03 0.0 0.0 9.0
 2  1 1 2 103   0  7.564670e+02  1.041279e+03 -1.997282e+03  2.376056e+03 0.0022 0.0 9.0
22  1 1 2   0   0 -7.564670e+02 -1.041279e+03  2.342771e+03  2.673028e+03 0.0 0.0 9.0
#pdf 2 21 4.149671e-01 3.618150e-01 5000.0 1.295826e-01 1.792759e-01
</event>
<event>
4 7 1.0 5000.0 7.905138e-03 7.739137e-02
21 -1 0 0 103 101  0.000000e+00  0.000000e+00  1.632666e+03  1.632666e+03 0.0 0.0 9.0
 2 -1 0 0 101   0  0.000000e+00  0.000000e+00 -3.460067e+03  3.460067e+03 0.0 0.0 9.0
22  1 1 2   0   0  5.553710e+02  2.210329e+03 -1.909264e+02  2.287017e+03 0.0 0.0 9.0
 2  1 1 2 103   0 -5.553710e+02 -2.210329e+03 -1.636475e+03  2.805716e+03 0.0022 0.0 9.0
#pdf 21 2 2.511794e-01 5.323181e-01 5000.0 6.577270e-02 1.789478e-03
</event>
<event>
4 7 1.0 5000.0 7.905138e-03 7.739137e-02
21 -1 0 0 103 101  0.000000e+00  0.000000e+00  3.003023e+03  3.003023e+03 0.0 0.0 9.0
 2 -1 0 0 101   0  0.000000e+00  0.000000e+00 -2.042074e+03  2.042074e+03 0.0 0.0 9.0
22  1 1 2   0   0  2.296726e+03  9.251009e+02  5.216064e+02  2.530383e+03 0.0 0.0 9.0
 2  1 1 2 103   0 -2.296726e+03 -9.251009e+02  4.393422e+02  2.514714e+03 0.0022 0.0 9.0
#pdf 21 2 4.620035e-01 3.141652e-01 5000.0 4.708378e-03 3.029277e-02
</event>
<event>
4 7 1.0 5000.0 7.905138e-03 7.739137e-02
21 -1 0 0 103 101  0.000000e+00  0.000000e+00  3.236492e+03  3.236492e+03 0.0 0.0 9.0
 2 -1 0 0 101   0  0.000000e+00  0.000000e+00 -1.980986e+03  1.980986e+03 0.0 0.0 9.0
 2  1 1 2 103   0  2.319627e+03  9.971351e+02  8.245781e+02  2.656102e+03 0.0022 0.0 9.0
22  1 1 2   0   0 -2.319627e+03 -9.971351e+02  4.309272e+02  2.561376e+03 0.0 0.0 9.0
#pdf 21 2 4.979218e-01 3.047672e-01 5000.0 2.900565e-03 3.400800e-02
</event>
<event>
4 7 1.0 5000.0 7.905138e-03 7.739137e-02
21 -1 0 0 103 101  0.000000e+00  0.000000e+00  1.971411e+03  1.971411e+03 0.0 0.0 9.0
 2 -1 0 0 101   0  0.000000e+00  0.000000e+00 -3.182371e+03  3.182371e+03 0.0 0.0 9.0
22  1 1 2   0   0 -1.926221e+03  1.596705e+03 -7.270661e+02  2.605459e+03 0.0 0.0 9.0
 2  1 1 2 103   0  1.926221e+03 -1.596705e+03 -4.838934e+02  2.548322e+03 0.0022 0.0 9.0
#pdf 21 2 3.032940e-01 4.895955e-01 5000.0 3.461820e-02 3.250261e-03
</event>
<event>
4 7 1.0 5000.0 7.905138e-03 7.739137e-02
21 -1 0 0 103 101  0.000000e+00  0.000000e+00  3.763138e+03  3.763138e+03 0.0 0.0 9.0
 2 -1 0 0 101   0  0.000000e+00  0.000000e+00 -1.653287e+03  1.653287e+03 0.0 0.0 9.0
 2  1 1 2 103   0 -4.628462e+02  2.203371e+03  2.220525e+03  3.162246e+03 0.0022 0.0 9.0
22  1 1 2   0   0  4.628462e+02 -2.203371e+03 -1.106736e+02  2.254178e+03 0.0 0.0 9.0
#pdf 21 2 5.789443e-01 2.543518e-01 5000.0 8.931867e-04 6.322804e-02
</event>
<event>
4 7 1.0 5000.0 7.905138e-03 7.739137e-02
21 -1 0 0 103 101  0.000000e+00  0.000000e+00  2.676354e+03  2.676354e+03 0.0 0.0 9.0
 2 -1 0 0 101   0  0.000000e+00  0.000000e+00 -2.254411e+03  2.254411e+03 0.0 0.0 9.0
22  1 1 2   0   0  1.237900e+03  3.251291e+02  2.315235e+03  2.645452e+03 0.0 0.0 9.0
 2  1 1 2 103   0 -1.237900e+03 -3.251291e+02 -1.893291e+03  2.285313e+03 0.0022 0.0 9.0
#pdf 21 2 4.117468e-01 3.468325e-01 5000.0 9.030736e-03 2.029412e-02
</event>
<event>
4 7 1.0 5000.0 7.905138e-03 7.739137e-02
21 -1 0 0 103 101  0.000000e+00  0.000000e+00  2.006866e+03  2.006866e+03 0.0 0.0 9.0
 2 -1 0 0 101   0  0.000000e+00  0.000000e+00 -3.135914e+03  3.135914e+03 0.0 0.0 9.0
 2  1 1 2 103   0  1.071069e+02 -2.408718e+03  1.455957e+02  2.415490e+03 0.0022 0.0 9.0
22  1 1 2   0   0 -1.071069e+02  2.408718e+03 -1.274643e+03  2.727290e+03 0.0 0.0 9.0
#pdf 21 2 3.087486e-01 4.824483e-01 5000.0 3.239195e-02 3.581345e-03
</event>
<event>
4 7 1.0 5000.0 7.905138e-03 7.739137e-02
21 -1 0 0 103 101  0.000000e+00  0.000000e+00  2.585828e+03  2.585828e+03 0.0 0.0 9.0
 2 -1 0 0 101   0  0.000000e+00  0.000000e+00 -2.112717e+03  2.112717e+03 0.0 0.0 9.0
22  1 1 2   0   0  1.205279e+03  1.112070e+03 -1.437403e+03  2.180717e+03 0.0 0.0 9.0
 2  1 1 2 103   0 -1.205279e+03 -1.112070e+03  1.910514e+03  2.517829e+03 0.0022 0.0 9.0
#pdf 21 2 3.978197e-01 3.250334e-01 5000.0 1.077099e-02 2.650883e-02
</event>
<event>
4 7 1.0 5000.0 7.905138e-03 7.739137e-02
 2 -1 0 0 101   0  0.000000e+00  0.000000e+00  2.653012e+03  2.653012e+03 0.0 0.0 9.0
21 -1 0 0 103 101  0.000000e+00  0.000000e+00 -2.122933e+03  2.122933e+03 0.0 0.0 9.0
22  1 1 2   0   0 -4.966459e+02 -2.163684e+03 -5.792132e+02  2.294270e+03 0.0 0.0 9.0
 2  1 1 2 103   0  4.966459e+02  2.163684e+03  1.109292e+03  2.481676e+03 0.0022 0.0 9.0
#pdf 2 21 4.081557e-01 3.266051e-01 5000.0 1.353957e-01 2.176016e-01
</event>
<event>
4 7 1.0 5000.0 7.905138e-03 7.739137e-02
21 -1 0 0 103 101  0.000000e+00  0.000000e+00  3.048512e+03  3.048512e+03 0.0 0.0 9.0
 2 -1 0 0 101   0  0.000000e+00  0.000000e+00 -1.875171e+03  1.875171e+03 0.0 0.0 9.0
 2  1 1 2 103   0 -1.130197e+03  2.079685e+03  2.389494e+02  2.378977e+03 0.0022 0.0 9.0
22  1 1 2   0   0  1.130197e+03 -2.079685e+03  9.343917e+02  2.544705e+03 0.0 0.0 9.0
#pdf 21 2 4.690018e-01 2.884878e-01 5000.0 4.291463e-03 4.149163e-02
</event>
<event>
4 7 1.0 5000.0 7.905138e-03 7.739137e-02
 2 -1 0 0 101   0  0.000000e+00  0.000000e+00  3.201701e+03  3.201701e+03 0.0 0.0 9.0
21 -1 0 0 103 101  0.000000e+00  0.000000e+00 -1.964306e+03  1.964306e+03 0.0 0.0 9.0
22  1 1 2   0   0  1.165616e+03  1.645353e+03 -9.170739e+02  2.215146e+03 0.0 0.0 9.0
 2  1 1 2 103   0 -1.165616e+03 -1.645353e+03  2.154468e+03  2.950861e+03 0.0022 0.0 9.0
#pdf 2 21 4.925693e-01 3.022010e-01 5000.0 7.466979e-02 2.465029e-01
</event>
<event>
4 7 1.0 5000.0 7.905138e-03 7.739137e-02
 2 -1 0 0 101   0  0.000000e+00  0.000000e+00  2.101805e+03  2.101805e+03 0.0 0.0 9.0
21 -1 0 0 103 101  0.000000e+00  0.000000e+00 -3.123481e+03  3.123481e+03 0.0 0.0 9.0
22  1 1 2   0   0  1.409060e+03 -1.161384e+03  1.321948e+03  2.254287e+03 0.0 0.0 9.0
 2  1 1 2 103   0 -1.409060e+03  1.161384e+03 -2.343624e+03  2.970999e+03 0.0022 0.0 9.0
#pdf 2 21 3.233547e-01 4.805355e-01 5000.0 2.213486e-01 8.186625e-02
</event>
<event>
4 7 1.0 5000.0 7.905138e-03 7.739137e-02
 2 -1 0 0 101   0  0.000000e+00  0.000000e+00  3.325106e+03  3.325106e+03 0.0 0.0 9.0
21 -1 0 0 103 101  0.000000e+00  0.000000e+00 -1.876923e+03  1.876923e+03 0.0 0.0 9.0
22  1 1 2   0   0  2.493072e+03  1.328550e+02  6.315114e+02  2.575241e+03 0.0 0.0 9.0
 2  1 1 2 103   0 -2.493072e+03 -1.328550e+02  8.166721e+02  2.626788e+03 0.0022 0.0 9.0
#pdf 2 21 5.115548e-01 2.887573e-01 5000.0 6.423750e-02 2.631614e-01
</event>
<event>
4 7 1.0 5000.0 7.905138e-03 7.739137e-02
 2 -1 0 0 101   0  0.000000e+00  0.000000e+00  1.459879e+03  1.459879e+03 0.0 0.0 9.0
21 -1 0 0 103 101  0.000000e+00  0.000000e+00 -4.076690e+03  4.076690e+03 0.0 0.0 9.0
 2  1 1 2 103   0 -1.879659e+03  1.415031e+02 -3.065734e+03  3.598871e+03 0.0022 0.0 9.0
22  1 1 2   0   0  1.879659e+03 -1.415031e+02  4.489237e+02  1.937698e+03 0.0 0.0 9.0
#pdf 2 21 2.245968e-01 6.271831e-01 5000.0 3.481210e-01 2.170559e-02
</event>
<event>
4 7 1.0 5000.0 7.905138e-03 7.739137e-02
 2 -1 0 0 101   0  0.000000e+00  0.000000e+00  4.198463e+03  4.198463e+03 0.0 0.0 9.0
21 -1 0 0 103 101  0.000000e+00  0.000000e+00 -1.569642e+03  1.569642e+03 0.0 0.0 9.0
22  1 1 2   0   0  1.097886e+03  1.589882e+03 -5.845379e+02  2.018605e+03 0.0 0.0 9.0
 2  1 1 2 103   0 -1.097886e+03 -1.589882e+03  3.213359e+03  3.749501e+03 0.0022 0.0 9.0
#pdf 2 21 6.459174e-01 2.414834e-01 5000.0 1.760166e-02 3.250626e-01
</event>
<event>
4 7 1.0 5000.0 7.905138e-03 7.739137e-02
 2 -1 0 0 101   0  0.000000e+00  0.000000e+00  4.121825e+03  4.121825e+03 0.0 0.0 9.0
21 -1 0 0 103 101  0.000000e+00  0.000000e+00 -1.605497e+03  1.605497e+03 0.0 0.0 9.0
 2  1 1 2 103   0 -8.789218e+02 -2.256889e+03  2.223203e+03  3.287656e+03 0.0022 0.0 9.0
22  1 1 2   0   0  8.789218e+02  2.256889e+03  2.931249e+02  2.439666e+03 0.0 0.0 9.0
#pdf 2 21 6.341269e-01 2.469996e-01 5000.0 2.010969e-02 3.176533e-01
</event>
<event>
4 7 1.0 5000.0 7.905138e-03 7.739137e-02
 2 -1 0 0 101   0  0.000000e+00  0.000000e+00  2.105328e+03  2.105328e+03 0.0 0.0 9.0
21 -1 0 0 103 101  0.000000e+00  0.000000e+00 -2.934444e+03  2.934444e+03 0.0 0.0 9.0
22  1 1 2   0   0 -1.822693e+03  9.693073e+02 -1.817948e+03  2.750764e+03 0.0 0.0 9.0
 2  1 1 2 103   0  1.822693e+03 -9.693073e+02  9.888324e+02  2.289008e+03 0.0022 0.0 9.0
#pdf 2 21 3.238966e-01 4.514529e-01 5000.0 2.207217e-01 1.012231e-01
</event>
<event>
4 7 1.0 5000.0 7.905138e-03 7.739137e-02
 2 -1 0 0 101   0  0.000000e+00  0.000000e+00  2.193094e+03  2.193094e+03 0.0 0.0 9.0
21 -1 0 0 103 101  0.000000e+00  0.000000e+00 -2.910321e+03  2.910321e+03 0.0 0.0 9.0
22  1 1 2   0   0  1.418876e+03  1.605980e+03 -1.710020e+03  2.741632e+03 0.0 0.0 9.0
 2  1 1 2 103   0 -1.418876e+03 -1.605980e+03  9.927925e+02  2.361783e+03 0.0022 0.0 9.0
#pdf 2 21 3.373990e-01 4.477417e-01 5000.0 2.054125e-01 1.038848e-01
</event>
<event>
4 7 1.0 5000.0 7.905138e-03 7.739137e-02
21 -1 0 0 103 101  0.000000e+00  0.000000e+00  2.714488e+03  2.714488e+03 0.0 0.0 9.0
 2 -1 0 0 101   0  0.000000e+00  0.000000e+00 -2.397773e+03  2.397773e+03 0.0 0.0 9.0
22  1 1 2   0   0 -1.020897e+02  2.457452e+03  8.373289e+02  2.598194e+03 0.0 0.0 9.0
 2  1 1 2 103   0  1.020897e+02 -2.457452e+03 -5.206138e+02  2.514067e+03 0.0022 0.0 9.0
#pdf 21 2 4.176135e-01 3.688881e-01 5000.0 8.381315e-03 1.544865e-02
</event>
<event>
4 7 1.0 5000.0 7.905138e-03 7.739137e-02
 2 -1 0 0 101   0  0.000000e+00  0.000000e+00  4.383760e+03  4.383760e+03 0.0 0.0 9.0
21 -1 0 0 103 101  0.000000e+00  0.000000e+00 -1.397741e+03  1.397741e+03 0.0 0.0 9.0
22  1 1 2   0   0  2.152800e+03 -1.160280e+03  1.045925e+03  2.659841e+03 0.0 0.0 9.0
 2  1 1 2 103   0 -2.152800e+03  1.160280e+03  1.940094e+03  3.121660e+03 0.0022 0.0 9.0
#pdf 2 21 6.744246e-01 2.150371e-01 5000.0 1.250294e-02 3.612325e-01
</event>
<event>
4 7 1.0 5000.0 7.905138e-03 7.739137e-02
21 -1 0 0 103 101  0.000000e+00  0.000000e+00  2.250350e+03  2.250350e+03 0.0 0.0 9.0
 2 -1 0 0 101   0  0.000000e+00  0.000000e+00 -2.769625e+03  2.769625e+03 0.0 0.0 9.0
22  1 1 2   0   0  5.369525e+02  9.571445e+02 -2.514092e+03  2.743192e+03 0.0 0.0 9.0
 2  1 1 2 103   0 -5.369525e+02 -9.571445e+02  1.994817e+03  2.276782e+03 0.0022 0.0 9.0
#pdf 21 2 3.462076e-01 4.260961e-01 5000.0 2.044997e-02 7.519357e-03
</event>
<event>
4 7 1.0 5000.0 7.905138e-03 7.739137e-02
 2 -1 0 0 101   0  0.000000e+00  0.000000e+00  2.497569e+03  2.497569e+03 0.0 0.0 9.0
21 -1 0 0 103 101  0.000000e+00  0.000000e+00 -2.568196e+03  2.568196e+03 0.0 0.0 9.0
 2  1 1 2 103   0 -5.356979e+02  1.343921e+03  2.043626e+03  2.503898e+03 0.0022 0.0 9.0
22  1 1 2   0   0  5.356979e+02 -1.343921e+03 -2.114254e+03  2.561867e+03 0.0 0.0 9.0
#pdf 2 21 3.842414e-01 3.951071e-01 5000.0 1.571039e-01 1.469978e-01
</event>
<event>
4 7 1.0 5000.0 7.905138e-03 7.739137e-02
 2 -1 0 0 101   0  0.000000e+00  0.000000e+00  2.858327e+03  2.858327e+03 0.0 0.0 9.0
21 -1 0 0 103 101  0.000000e+00  0.000000e+00 -2.158441e+03  2.158441e+03 0.0 0.0 9.0
22  1 1 2   0   0  1.961594e+03  1.260467e+03  1.214495e+03  2.628997e+03 0.0 0.0 9.0
 2  1 1 2 103   0 -1.961594e+03 -1.260467e+03 -5.146079e+02  2.387771e+03 0.0022 0.0 9.0
#pdf 2 21 4.397427e-01 3.320678e-01 5000.0 1.098299e-01 2.113815e-01
</event>
<event>
4 7 1.0 5000.0 7.905138e-03 7.739137e-02
21 -1 0 0 103 101  0.000000e+00  0.000000e+00  1.460925e+03  1.460925e+03 0.0 0.0 9.0
 2 -1 0 0 101   0  0.000000e+00  0.000000e+00 -4.313194e+03  4.313194e+03 0.0 0.0 9.0
 2  1 1 2 103   0  1.886966e+03 -7.666609e+02 -3.113652e+03  3.720650e+03 0.0022 0.0 9.0
22  1 1 2   0   0 -1.886966e+03  7.666609e+02  2.613827e+02  2.053468e+03 0.0 0.0 9.0
#pdf 21 2 2.247577e-01 6.635683e-01 5000.0 9.152912e-02 2.168940e-04
</event>
<event>
4 7 1.0 5000.0 7.905138e-03 7.739137e-02
21 -1 0 0 103 101  0.000000e+00  0.000000e+00  1.579861e+03  1.579861e+03 0.0 0.0 9.0
 2 -1 0 0 101   0  0.000000e+00  0.000000e+00 -4.004395e+03  4.004395e+03 0.0 0.0 9.0
 2  1 1 2 103   0 -1.025895e+03  2.224291e+03 -5.780044e+02  2.516748e+03 0.0022 0.0 9.0
22  1 1 2   0   0  1.025895e+03 -2.224291e+03 -1.846530e+03  3.067508e+03 0.0 0.0 9.0
#pdf 21 2 2.430555e-01 6.160608e-01 5000.0 7.275457e-02 4.945325e-04
</event>
<event>
4 7 1.0 5000.0 7.905138e-03 7.739137e-02
 2 -1 0 0 101   0  0.000000e+00  0.000000e+00  1.908050e+03  1.908050e+03 0.0 0.0 9.0
21 -1 0 0 103 101  0.000000e+00  0.000000e+00 -3.397848e+03  3.397848e+03 0.0 0.0 9.0
 2  1 1 2 103   0  9.239863e+02  1.052115e+03 -2.960668e+03  3.275096e+03 0.0022 0.0 9.0
22  1 1 2   0   0 -9.239863e+02 -1.052115e+03  1.470871e+03  2.030802e+03 0.0 0.0 9.0
#pdf 2 21 2.935462e-01 5.227458e-01 5000.0 2.571609e-01 5.859976e-02
</event>
<event>
4 7 1.0 5000.0 7.905138e-03 7.739137e-02
21 -1 0 0 103 101  0.000000e+00  0.000000e+00  1.991750e+03  1.991750e+03 0.0 0.0 9.0
 2 -1 0 0 101   0  0.000000e+00  0.000000e+00 -2.707491e+03  2.707491e+03 0.0 0.0 9.0
 2  1 1 2 103   0 -1.000342e+03  2.090412e+03 -5.084212e+02  2.372551e+03 0.0022 0.0 9.0
22  1 1 2   0   0  1.000342e+03 -2.090412e+03 -2.073201e+02  2.326690e+03 0.0 0.0 9.0
#pdf 21 2 3.064231e-01 4.165371e-01 5000.0 3.332950e-02 8.496917e-03
</event>
<event>
4 7 1.0 5000.0 7.905138e-03 7.739137e-02
 2 -1 0 0 101   0  0.000000e+00  0.000000e+00  1.342916e+03  1.342916e+03 0.0 0.0 9.0
21 -1 0 0 103 101  0.000000e+00  0.000000e+00 -4.609650e+03  4.609650e+03 0.0 0.0 9.0
 2  1 1 2 103   0  1.180773e+03  1.483768e+03  2.934896e+02  1.918835e+03 0.0022 0.0 9.0
22  1 1 2   0   0 -1.180773e+03 -1.483768e+03 -3.560224e+03  4.033731e+03 0.0 0.0 9.0
#pdf 2 21 2.066024e-01 7.091770e-01 5000.0 3.729332e-01 7.883459e-03
</event>
<event>
4 7 1.0 5000.0 7.905138e-03 7.739137e-02
21 -1 0 0 103 101  0.000000e+00  0.000000e+00  1.932211e+03  1.932211e+03 0.0 0.0 9.0
 2 -1 0 0 101   0  0.000000e+00  0.000000e+00 -3.233471e+03  3.233471e+03 0.0 0.0 9.0
 2  1 1 2 103   0  2.076094e+03  1.386006e+03 -5.176196e+02  2.549335e+03 0.0022 0.0 9.0
22  1 1 2   0   0 -2.076094e+03 -1.386006e+03 -7.836404e+02  2.616347e+03 0.0 0.0 9.0
#pdf 21 2 2.972632e-01 4.974570e-01 5000.0 3.727431e-02 2.919208e-03
</event>
<event>
4 7 1.0 5000.0 7.905138e-03 7.739137e-02
21 -1 0 0 103 101  0.000000e+00  0.000000e+00  3.799846e+03  3.799846e+03 0.0 0.0 9.0
 2 -1 0 0 101   0  0.000000e+00  0.000000e+00 -1.644020e+03  1.644020e+03 0.0 0.0 9.0
22  1 1 2   0   0  6.784889e+02  2.366555e+03  6.081210e+02  2.535890e+03 0.0 0.0 9.0
 2  1 1 2 103   0 -6.784889e+02 -2.366555e+03  1.547706e+03  2.907975e+03 0.0022 0.0 9.0
#pdf 21 2 5.845917e-01 2.529261e-01 5000.0 8.185489e-04 6.436235e-02
</event>
<event>
4 7 1.0 5000.0 7.905138e-03 7.739137e-02
21 -1 0 0 103 101  0.000000e+00  0.000000e+00  2.568299e+03  2.568299e+03 0.0 0.0 9.0
 2 -1 0 0 101   0  0.000000e+00  0.000000e+00 -2.389987e+03  2.389987e+03 0.0 0.0 9.0
 2  1 1 2 103   0  8.332037e+02 -3.220721e+02 -2.223236e+03  2.395983e+03 0.0022 0.0 9.0
22  1 1 2   0   0 -8.332037e+02  3.220721e+02  2.401549e+03  2.562303e+03 0.0 0.0 9.0
#pdf 21 2 3.951230e-01 3.676903e-01 5000.0 1.114215e-02 1.568332e-02
</event>
<event>
4 7 1.0 5000.0 7.905138e-03 7.739137e-02
21 -1 0 0 103 101  0.000000e+00  0.000000e+00  2.927164e+03  2.927164e+03 0.0 0.0 9.0
 2 -1 0 0 101   0  0.000000e+00  0.000000e+00 -2.102008e+03  2.102008e+03 0.0 0.0 9.0
22  1 1 2   0   0  8.205771e+02  1.546818e+03  2.193681e+03  2.806818e+03 0.0 0.0 9.0
 2  1 1 2 103   0 -8.205771e+02 -1.546818e+03 -1.368525e+03  2.222353e+03 0.0022 0.0 9.0
#pdf 21 2 4.503329e-01 3.233858e-01 5000.0 5.493660e-03 2.704836e-02
</event>
<event>
4 7 1.0 5000.0 7.905138e-03 7.739137e-02
 2 -1 0 0 101   0  0.000000e+00  0.000000e+00  4.442752e+03  4.442752e+03 0.0 0.0 9.0
21 -1 0 0 103 101  0.000000e+00  0.000000e+00 -1.416643e+03  1.416643e+03 0.0 0.0 9.0
22  1 1 2   0   0 -1.410813e+03 -3.409454e+02 -8.765507e+02  1.695576e+03 0.0 0.0 9.0
 2  1 1 2 103   0  1.410813e+03  3.409454e+02  3.902660e+03  4.163819e+03 0.0022 0.0 9.0
#pdf 2 21 6.835004e-01 2.179451e-01 5000.0 1.114269e-02 3.572313e-01
</event>
<event>
4 7 1.0 5000.0 7.905138e-03 7.739137e-02
21 -1 0 0 103 101  0.000000e+00  0.000000e+00  3.680489e+03  3.680489e+03 0.0 0.0 9.0
 2 -1 0 0 101   0  0.000000e+00  0.000000e+00 -1.732980e+03  1.732980e+03 0.0 0.0 9.0
22  1 1 2   0   0 -2.250656e+02  2.135750e+03  2.398075e+03  3.219137e+03 0.0 0.0 9.0
 2  1 1 2 103   0  2.250656e+02 -2.135750e+03 -4.505657e+02  2.194332e+03 0.0022 0.0 9.0
#pdf 21 2 5.662291e-01 2.666123e-01 5000.0 1.085967e-03 5.426363e-02
</event>
<event>
4 7 1.0 5000.0 7.905138e-03 7.739137e-02
21 -1 0 0 103 101  0.000000e+00  0.000000e+00  2.155834e+03  2.155834e+03 0.0 0.0 9.0
 2 -1 0 0 101   0  0.000000e+00  0.000000e+00 -2.958848e+03  2.958848e+03 0.0 0.0 9.0
 2  1 1 2 103   0  2.046906e+03 -4.914784e+02  1.011513e+03  2.335494e+03 0.0022 0.0 9.0
22  1 1 2   0   0 -2.046906e+03  4.914784e+02 -1.814527e+03  2.779188e+03 0.0 0.0 9.0
#pdf 21 2 3.316667e-01 4.552074e-01 5000.0 2.444200e-02 5.153988e-03
</event>
<event>
4 7 1.0 5000.0 7.905138e-03 7.739137e-02
21 -1 0 0 103 101  0.000000e+00  0.000000e+00  2.458363e+03  2.458363e+03 0.0 0.0 9.0
 2 -1 0 0 101   0  0.000000e+00  0.000000e+00 -2.578796e+03  2.578796e+03 0.0 0.0 9.0
22  1 1 2   0   0 -5.842105e+02 -2.349207e+02 -2.498767e+03  2.576883e+03 0.0 0.0 9.0
 2  1 1 2 103   0  5.842105e+02  2.349207e+02  2.378334e+03  2.460277e+03 0.0022 0.0 9.0
#pdf 21 2 3.782097e-01 3.967379e-01 5000.0 1.377897e-02 1.091839e-02
</event>
<event>
4 7 1.0 5000.0 7.905138e-03 7.739137e-02
 2 -1 0 0 101   0  0.000000e+00  0.000000e+00  2.885393e+03  2.885393e+03 0.0 0.0 9.0
21 -1 0 0 103 101  0.000000e+00  0.000000e+00 -2.210215e+03  2.210215e+03 0.0 0.0 9.0
 2  1 1 2 103   0 -1.432631e+03 -1.367518e+03 -1.243130e+03  2.338356e+03 0.0022 0.0 9.0
22  1 1 2   0   0  1.432631e+03  1.367518e+03  1.918308e+03  2.757253e+03 0.0 0.0 9.0
#pdf 2 21 4.439067e-01 3.400331e-01 5000.0 1.067077e-01 2.024976e-01
</event>
<event>
4 7 1.0 5000.0 7.905138e-03 7.739137e-02
 2 -1 0 0 101   0  0.000000e+00  0.000000e+00  2.308934e+03  2.308934e+03 0.0 0.0 9.0
21 -1 0 0 103 101  0.000000e+00  0.000000e+00 -2.691693e+03  2.691693e+03 0.0 0.0 9.0
 2  1 1 2 103   0  1.625047e+03  1.037451e+03  1.393731e+03  2.378985e+03 0.0022 0.0 9.0
22  1 1 2   0   0 -1.625047e+03 -1.037451e+03 -1.776491e+03  2.621641e+03 0.0 0.0 9.0
#pdf 2 21 3.552206e-01 4.141066e-01 5000.0 1.861329e-01 1.303083e-01
</event>
<event>
4 7 1.0 5000.0 7.905138e-03 7.739137e-02
 2 -1 0 0 101   0  0.000000e+00  0.000000e+00  1.299585e+03  1.299585e+03 0.0 0.0 9.0
21 -1 0 0 103 101  0.000000e+00  0.000000e+00 -4.809145e+03  4.809145e+03 0.0 0.0 9.0
22  1 1 2   0   0  1.681795e+03 -7.237799e+02 -3.834495e+03  4.249193e+03 0.0 0.0 9.0
 2  1 1 2 103   0 -1.681795e+03  7.237799e+02  3.249352e+02  1.859536e+03 0.0022 0.0 9.0
#pdf 2 21 1.999361e-01 7.398684e-01 5000.0 3.821154e-01 4.992848e-03
</event>
<event>
4 7 1.0 5000.0 7.905138e-03 7.739137e-02
 2 -1 0 0 101   0  0.000000e+00  0.000000e+00  2.864892e+03  2.864892e+03 0.0 0.0 9.0
21 -1 0 0 103 101  0.000000e+00  0.000000e+00 -2.168162e+03  2.168162e+03 0.0 0.0 9.0
 2  1 1 2 103   0  4.152538e+02  2.306436e+03  1.204825e+03  2.635087e+03 0.0022 0.0 9.0
22  1 1 2   0   0 -4.152538e+02 -2.306436e+03 -5.080947e+02  2.397966e+03 0.0 0.0 9.0
#pdf 2 21 4.407526e-01 3.335633e-01 5000.0 1.090685e-01 2.096967e-01
</event>
<event>
4 7 1.0 5000.0 7.905138e-03 7.739137e-02
 2 -1 0 0 101   0  0.000000e+00  0.000000e+00  3.892515e+03  3.892515e+03 0.0 0.0 9.0
21 -1 0 0 103 101  0.000000e+00  0.000000e+00 -1.570990e+03  1.570990e+03 0.0 0.0 9.0
22  1 1 2   0   0  3.719867e+02  2.140283e+03 -1.444148e+02  2.177163e+03 0.0 0.0 9.0
 2  1 1 2 103   0 -3.719867e+02 -2.140283e+03  2.465939e+03  3.286342e+03 0.0022 0.0 9.0
#pdf 2 21 5.988484e-01 2.416908e-01 5000.0 2.919950e-02 3.247831e-01
</event>
<event>
4 7 1.0 5000.0 7.905138e-03 7.739137e-02
21 -1 0 0 103 101  0.000000e+00  0.000000e+00  1.692310e+03  1.692310e+03 0.0 0.0 9.0
 2 -1 0 0 101   0  0.000000e+00  0.000000e+00 -3.616246e+03  3.616246e+03 0.0 0.0 9.0
22  1 1 2   0   0 -1.440142e+03 -2.912256e+02 -3.097368e+03  3.428193e+03 0.0 0.0 9.0
 2  1 1 2 103   0  1.440142e+03  2.912256e+02  1.173431e+03  1.880362e+03 0.0022 0.0 9.0
#pdf 21 2 2.603553e-01 5.563455e-01 5000.0 5.864654e-02 1.259428e-03
</event>
<event>
4 7 1.0 5000.0 7.905138e-03 7.739137e-02
21 -1 0 0 103 101  0.000000e+00  0.000000e+00  2.674133e+03  2.674133e+03 0.0 0.0 9.0
 2 -1 0 0 101   0  0.000000e+00  0.000000e+00 -2.373037e+03  2.373037e+03 0.0 0.0 9.0
22  1 1 2   0   0  8.459938e+02  1.100486e+03 -1.955354e+03  2.397955e+03 0.0 0.0 9.0
 2  1 1 2 103   0 -8.459938e+02 -1.100486e+03  2.256450e+03  2.649216e+03 0.0022 0.0 9.0
#pdf 21 2 4.114051e-01 3.650826e-01 5000.0 9.070090e-03 1.620405e-02
</event>
<event>
4 7 1.0 5000.0 7.905138e-03 7.739137e-02
21 -1 0 0 103 101  0.000000e+00  0.000000e+00  1.277838e+03  1.277838e+03 0.0 0.0 9.0
 2 -1 0 0 101   0  0.000000e+00  0.000000e+00 -4.292047e+03  4.292047e+03 0.0 0.0 9.0
 2  1 1 2 103   0  1.434257e+03  1.763565e+03 -2.176947e+03  3.147436e+03 0.0022 0.0 9.0
22  1 1 2   0   0 -1.434257e+03 -1.763565e+03 -8.372627e+02  2.422450e+03 0.0 0.0 9.0
#pdf 21 2 1.965905e-01 6.603150e-01 5000.0 1.315116e-01 2.305466e-04
</event>
<event>
4 7 1.0 5000.0 7.905138e-03 7.739137e-02
21 -1 0 0 103 101  0.000000e+00  0.000000e+00  1.207155e+03  1.207155e+03 0.0 0.0 9.0
 2 -1 0 0 101   0  0.000000e+00  0.000000e+00 -5.107736e+03  5.107736e+03 0.0 0.0 9.0
22  1 1 2   0   0 -1.817955e+03 -1.338374e+03 -3.265380e+03  3.969750e+03 0.0 0.0 9.0
 2  1 1 2 103   0  1.817955e+03  1.338374e+03 -6.352009e+02  2.345141e+03 0.0022 0.0 9.0
#pdf 21 2 1.857161e-01 7.858055e-01 5000.0 1.520025e-01 1.509774e-05
</event>
<event>
4 7 1.0 5000.0 7.905138e-03 7.739137e-02
 2 -1 0 0 101   0  0.000000e+00  0.000000e+00  1.382042e+03  1.382042e+03 0.0 0.0 9.0
21 -1 0 0 103 101  0.000000e+00  0.000000e+00 -4.460536e+03  4.460536e+03 0.0 0.0 9.0
22  1 1 2   0   0 -1.012073e+03 -2.704141e+02  1.109289e+03  1.525758e+03 0.0 0.0 9.0
 2  1 1 2 103   0  1.012073e+03  2.704141e+02 -4.187783e+03  4.316820e+03 0.0022 0.0 9.0
#pdf 2 21 2.126219e-01 6.862363e-01 5000.0 3.645689e-01 1.075649e-02
</event>
<event>
4 7 1.0 5000.0 7.905138e-03 7.739137e-02
 2 -1 0 0 101   0  0.000000e+00  0.000000e+00  2.218933e+03  2.218933e+03 0.0 0.0 9.0
21 -1 0 0 103 101  0.000000e+00  0.000000e+00 -2.791851e+03  2.791851e+03 0.0 0.0 9.0
22  1 1 2   0   0 -1.199785e+03  6.658955e+02 -2.376710e+03  2.744385e+03 0.0 0.0 9.0
 2  1 1 2 103   0  1.199785e+03 -6.658955e+02  1.803792e+03  2.266399e+03 0.0022 0.0 9.0
#pdf 2 21 3.413743e-01 4.295156e-01 5000.0 2.010215e-01 1.177142e-01
</event>
<event>
4 7 1.0 5000.0 7.905138e-03 7.739137e-02
 2 -1 0 0 101   0  0.000000e+00  0.000000e+00  2.508191e+03  2.508191e+03 0.0 0.0 9.0
21 -1 0 0 103 101  0.000000e+00  0.000000e+00 -2.509457e+03  2.509457e+03 0.0 0.0 9.0
 2  1 1 2 103   0 -1.905438e+03  1.580001e+03  4.081464e+02  2.508721e+03 0.0022 0.0 9.0
22  1 1 2   0   0  1.905438e+03 -1.580001e+03 -4.094130e+02  2.508927e+03 0.0 0.0 9.0
#pdf 2 21 3.858755e-01 3.860704e-01 5000.0 1.555571e-01 1.553733e-01
</event>
<event>
4 7 1.0 5000.0 7.905138e-03 7.739137e-02
 2 -1 0 0 101   0  0.000000e+00  0.000000e+00  2.896179e+03  2.896179e+03 0.0 0.0 9.0
21 -1 0 0 103 101  0.000000e+00  0.000000e+00 -2.121186e+03  2.121186e+03 0.0 0.0 9.0
22  1 1 2   0   0 -7.403158e+02  6.193742e+02  2.698130e+03  2.865588e+03 0.0 0.0 9.0
 2  1 1 2 103   0  7.403158e+02 -6.193742e+02 -1.923137e+03  2.151778e+03 0.0022 0.0 9.0
#pdf 2 21 4.455661e-01 3.263364e-01 5000.0 1.054756e-01 2.179102e-01
</event>
<event>
4 7 1.0 5000.0 7.905138e-03 7.739137e-02
21 -1 0 0 103 101  0.000000e+00  0.000000e+00  3.603002e+03  3.603002e+03 0.0 0.0 9.0
 2 -1 0 0 101   0  0.000000e+00  0.000000e+00 -1.903066e+03  1.903066e+03 0.0 0.0 9.0
 2  1 1 2 103   0 -1.795076e+03 -1.784844e+03  1.456431e+02  2.535582e+03 0.0022 0.0 9.0
22  1 1 2   0   0  1.795076e+03  1.784844e+03  1.554292e+03  2.970486e+03 0.0 0.0 9.0
#pdf 21 2 5.543080e-01 2.927795e-01 5000.0 1.297137e-03 3.938822e-02
</event>
<event>
4 7 1.0 5000.0 7.905138e-03 7.739137e-02
21 -1 0 0 103 101  0.000000e+00  0.000000e+00  1.993069e+03  1.993069e+03 0.0 0.0 9.0
 2 -1 0 0 101   0  0.000000e+00  0.000000e+00 -3.069663e+03  3.069663e+03 0.0 0.0 9.0
 2  1 1 2 103   0 -1.310546e+03  2.004196e+03  9.565152e+01  2.396556e+03 0.0022 0.0 9.0
22  1 1 2   0   0  1.310546e+03 -2.004196e+03 -1.172246e+03  2.666176e+03 0.0 0.0 9.0
#pdf 21 2 3.066260e-01 4.722559e-01 5000.0 3.324695e-02 4.109140e-03
</event>
<event>
4 7 1.0 5000.0 7.905138e-03 7.739137e-02
21 -1 0 0 103 101  0.000000e+00  0.000000e+00  3.268167e+03  3.268167e+03 0.0 0.0 9.0
 2 -1 0 0 101   0  0.000000e+00  0.000000e+00 -1.840848e+03  1.840848e+03 0.0 0.0 9.0
22  1 1 2   0   0  2.178225e+03  1.625545e+02 -4.484574e+02  2.229844e+03 0.0 0.0 9.0
 2  1 1 2 103   0 -2.178225e+03 -1.625545e+02  1.875776e+03  2.879171e+03 0.0022 0.0 9.0
#pdf 21 2 5.027949e-01 2.832074e-01 5000.0 2.711301e-03 4.424225e-02
</event>
<event>
4 7 1.0 5000.0 7.905138e-03 7.739137e-02
 2 -1 0 0 101   0  0.000000e+00  0.000000e+00  4.061567e+03  4.061567e+03 0.0 0.0 9.0
21 -1 0 0 103 101  0.000000e+00  0.000000e+00 -1.475963e+03  1.475963e+03 0.0 0.0 9.0
 2  1 1 2 103   0  1.249681e+03 -1.688982e+03  2.714409e+03  3.432547e+03 0.0022 0.0 9.0
22  1 1 2   0   0 -1.249681e+03  1.688982e+03 -1.288049e+02  2.104983e+03 0.0 0.0 9.0
#pdf 2 21 6.248565e-01 2.270713e-01 5000.0 2.226119e-02 3.447387e-01
</event>
<event>
4 7 1.0 5000.0 7.905138e-03 7.739137e-02
 2 -1 0 0 101   0  0.000000e+00  0.000000e+00  1.907473e+03  1.907473e+03 0.0 0.0 9.0
21 -1 0 0 103 101  0.000000e+00  0.000000e+00 -3.262869e+03  3.262869e+03 0.0 0.0 9.0
22  1 1 2   0   0  2.318197e+03  1.342636e+02  2.673695e+02  2.337424e+03 0.0 0.0 9.0
 2  1 1 2 103   0 -2.318197e+03 -1.342636e+02 -1.622765e+03  2.832919e+03 0.0022 0.0 9.0
#pdf 2 21 2.934574e-01 5.019799e-01 5000.0 2.572715e-01 6.936042e-02
</event>
<event>
4 7 1.0 5000.0 7.905138e-03 7.739137e-02
 2 -1 0 0 101   0  0.000000e+00  0.000000e+00  2.286653e+03  2.286653e+03 0.0 0.0 9.0
21 -1 0 0 103 101  0.000000e+00  0.000000e+00 -2.738827e+03  2.738827e+03 0.0 0.0 9.0
 2  1 1 2 103   0 -2.914663e+02 -2.058269e+03  1.172902e+03  2.386864e+03 0.0022 0.0 9.0
22  1 1 2   0   0  2.914663e+02  2.058269e+03 -1.625076e+03  2.638616e+03 0.0 0.0 9.0
#pdf 2 21 3.517928e-01 4.213580e-01 5000.0 1.897564e-01 1.242738e-01
</event>
<event>
4 7 1.0 5000.0 7.905138e-03 7.739137e-02
 2 -1 0 0 101   0  0.000000e+00  0.000000e+00  2.095146e+03  2.095146e+03 0.0 0.0 9.0
21 -1 0 0 103 101  0.000000e+00  0.000000e+00 -3.014756e+03  3.014756e+03 0.0 0.0 9.0
 2  1 1 2 103   0  2.402318e+03  1.612840e+02 -1.192330e+03  2.686781e+03 0.0022 0.0 9.0
22  1 1 2   0   0 -2.402318e+03 -1.612840e+02  2.727198e+02  2.423122e+03 0.0 0.0 9.0
#pdf 2 21 3.223302e-01 4.638087e-01 5000.0 2.225361e-01 9.265084e-02
</event>
<event>
4 7 1.0 5000.0 7.905138e-03 7.739137e-02
 2 -1 0 0 101   0  0.000000e+00  0.000000e+00  2.618149e+03  2.618149e+03 0.0 0.0 9.0
21 -1 0 0 103 101  0.000000e+00  0.000000e+00 -2.445093e+03  2.445093e+03 0.0 0.0 9.0
 2  1 1 2 103   0 -2.186091e+03  1.272686e+03  3.270052e+01  2.529781e+03 0.0022 0.0 9.0
22  1 1 2   0   0  2.186091e+03 -1.272686e+03  1.403551e+02  2.533461e+03 0.0 0.0 9.0
#pdf 2 21 4.027921e-01 3.761682e-01 5000.0 1.400904e-01 1.648796e-01
</event>
<event>
4 7 1.0 5000.0 7.905138e-03 7.739137e-02
 2 -1 0 0 101   0  0.000000e+00  0.000000e+00  2.991679e+03  2.991679e+03 0.0 0.0 9.0
21 -1 0 0 103 101  0.000000e+00  0.000000e+00 -2.093780e+03  2.093780e+03 0.0 0.0 9.0
22  1 1 2   0   0  1.836543e+03  6.211436e+02 -1.159098e+03  2.258809e+03 0.0 0.0 9.0
 2  1 1 2 103   0 -1.836543e+03 -6.211436e+02  2.056998e+03  2.826650e+03 0.0022 0.0 9.0
#pdf 2 21 4.602583e-01 3.221199e-01 5000.0 9.505664e-02 2.227802e-01
</event>
<event>
4 7 1.0 5000.0 7.905138e-03 7.739137e-02
 2 -1 0 0 101   0  0.000000e+00  0.000000e+00  1.349161e+03  1.349161e+03 0.0 0.0 9.0
21 -1 0 0 103 101  0.000000e+00  0.000000e+00 -4.473940e+03  4.473940e+03 0.0 0.0 9.0
22  1 1 2   0   0  4.030914e+02 -2.422492e+03 -1.477630e+03  2.866067e+03 0.0 0.0 9.0
 2  1 1 2 103   0 -4.030914e+02  2.422492e+03 -1.647148e+03  2.957034e+03 0.0022 0.0 9.0
#pdf 2 21 2.075633e-01 6.882984e-01 5000.0 3.716017e-01 1.047102e-02
</event>
<event>
4 7 1.0 5000.0 7.905138e-03 7.739137e-02
21 -1 0 0 103 101  0.000000e+00  0.000000e+00  2.768711e+03  2.768711e+03 0.0 0.0 9.0
 2 -1 0 0 101   0  0.000000e+00  0.000000e+00 -2.264225e+03  2.264225e+03 0.0 0.0 9.0
 2  1 1 2 103   0  1.864514e+03  1.646672e+02  1.923627e+03  2.684002e+03 0.0022 0.0 9.0
22  1 1 2   0   0 -1.864514e+03 -1.646672e+02 -1.419141e+03  2.348933e+03 0.0 0.0 9.0
#pdf 21 2 4.259555e-01 3.483423e-01 5000.0 7.533000e-03 1.992185e-02
</event>
<event>
4 7 1.0 5000.0 7.905138e-03 7.739137e-02
 2 -1 0 0 101   0  0.000000e+00  0.000000e+00  3.006647e+03  3.006647e+03 0.0 0.0 9.0
21 -1 0 0 103 101  0.000000e+00  0.000000e+00 -2.053943e+03  2.053943e+03 0.0 0.0 9.0
 2  1 1 2 103   0 -1.579043e+03  5.263564e+02  2.355226e+03  2.884011e+03 0.0022 0.0 9.0
22  1 1 2   0   0  1.579043e+03 -5.263564e+02 -1.402522e+03  2.176579e+03 0.0 0.0 9.0
#pdf 2 21 4.625610e-01 3.159913e-01 5000.0 9.349013e-02 2.299484e-01
</event>
<event>
4 7 1.0 5000.0 7.905138e-03 7.739137e-02
 2 -1 0 0 101   0  0.000000e+00  0.000000e+00  2.624375e+03  2.624375e+03 0.0 0.0 9.0
21 -1 0 0 103 101  0.000000e+00  0.000000e+00 -2.374879e+03  2.374879e+03 0.0 0.0 9.0
 2  1 1 2 103   0 -6.127577e+02  2.397911e+03 -2.029585e+02  2.483273e+03 0.0022 0.0 9.0
22  1 1 2   0   0  6.127577e+02 -2.397911e+03  4.524543e+02  2.515982e+03 0.0 0.0 9.0
#pdf 2 21 4.037500e-01 3.653660e-01 5000.0 1.392441e-01 1.756438e-01
</event>
<event>
4 7 1.0 5000.0 7.905138e-03 7.739137e-02
21 -1 0 0 103 101  0.000000e+00  0.000000e+00  2.534249e+03  2.534249e+03 0.0 0.0 9.0
 2 -1 0 0 101   0  0.000000e+00  0.000000e+00 -2.359537e+03  2.359537e+03 0.0 0.0 9.0
22  1 1 2   0   0  1.331244e+03  1.430462e+03 -1.383691e+03  2.394375e+03 0.0 0.0 9.0
 2  1 1 2 103   0 -1.331244e+03 -1.430462e+03  1.558403e+03  2.499410e+03 0.0022 0.0 9.0
#pdf 21 2 3.898844e-01 3.630057e-01 5000.0 1.190082e-02 1.662481e-02
</event>
<event>
4 7 1.0 5000.0 7.905138e-03 7.739137e-02
21 -1 0 0 103 101  0.000000e+00  0.000000e+00  1.775592e+03  1.775592e+03 0.0 0.0 9.0
 2 -1 0 0 101   0  0.000000e+00  0.000000e+00 -3.536186e+03  3.536186e+03 0.0 0.0 9.0
22  1 1 2   0   0  1.571540e+03 -1.653733e+03 -1.978857e+03  3.020008e+03 0.0 0.0 9.0
 2  1 1 2 103   0 -1.571540e+03  1.653733e+03  2.182632e+02  2.291770e+03 0.0022 0.0 9.0
#pdf 21 2 2.731680e-01 5.440286e-01 5000.0 5.005770e-02 1.509255e-03
</event>
<event>
4 7 1.0 5000.0 7.905138e-03 7.739137e-02
21 -1 0 0 103 101  0.000000e+00  0.000000e+00  1.821347e+03  1.821347e+03 0.0 0.0 9.0
 2 -1 0 0 101   0  0.000000e+00  0.000000e+00 -3.405939e+03  3.405939e+03 0.0 0.0 9.0
 2  1 1 2 103   0  5.888216e+02  2.012046e+03  6.188565e+02  2.185869e+03 0.0022 0.0 9.0
22  1 1 2   0   0 -5.888216e+02 -2.012046e+03 -2.203448e+03  3.041417e+03 0.0 0.0 9.0
#pdf 21 2 2.802073e-01 5.239906e-01 5000.0 4.590740e-02 2.014790e-03
</event>
<event>
4 7 1.0 5000.0 7.905138e-03 7.739137e-02
21 -1 0 0 103 101  0.000000e+00  0.000000e+00  2.831193e+03  2.831193e+03 0.0 0.0 9.0
 2 -1 0 0 101   0  0.000000e+00  0.000000e+00 -2.189232e+03  2.189232e+03 0.0 0.0 9.0
22  1 1 2   0   0  5.503531e+02  1.354464e+03 -1.710811e+03  2.250408e+03 0.0 0.0 9.0
 2  1 1 2 103   0 -5.503531e+02 -1.354464e+03  2.352772e+03  2.770018e+03 0.0022 0.0 9.0
#pdf 21 2 4.355682e-01 3.368049e-01 5000.0 6.660054e-03 2.294550e-02
</event>
<event>
4 7 1.0 5000.0 7.905138e-03 7.739137e-02
21 -1 0 0 103 101  0.000000e+00  0.000000e+00  3.716103e+03  3.716103e+03 0.0 0.0 9.0
 2 -1 0 0 101   0  0.000000e+00  0.000000e+00 -1.748388e+03  1.748388e+03 0.0 0.0 9.0
22  1 1 2   0   0  1.528506e+03 -1.965185e+03  3.978202e+02  2.521219e+03 0.0 0.0 9.0
 2  1 1 2 103   0 -1.528506e+03  1.965185e+03  1.569894e+03  2.943272e+03 0.0022 0.0 9.0
#pdf 21 2 5.717081e-01 2.689828e-01 5000.0 9.982851e-04 5.270110e-02
</event>
<event>
4 7 1.0 5000.0 7.905138e-03 7.739137e-02
 2 -1 0 0 101   0  0.000000e+00  0.000000e+00  2.384134e+03  2.384134e+03 0.0 0.0 9.0
21 -1 0 0 103 101  0.000000e+00  0.000000e+00 -2.779720e+03  2.779720e+03 0.0 0.0 9.0
22  1 1 2   0   0 -4.430263e+02 -1.460009e+03  1.881800e+03  2.422616e+03 0.0 0.0 9.0
 2  1 1 2 103   0  4.430263e+02  1.460009e+03 -2.277386e+03  2.741238e+03 0.0022 0.0 9.0
#pdf 2 21 3.667899e-01 4.276493e-01 5000.0 1.741991e-01 1.191924e-01
</event>
<event>
4 7 1.0 5000.0 7.905138e-03 7.739137e-02
21 -1 0 0 103 101  0.000000e+00  0.000000e+00  1.384451e+03  1.384451e+03 0.0 0.0 9.0
 2 -1 0 0 101   0  0.000000e+00  0.000000e+00 -4.276001e+03  4.276001e+03 0.0 0.0 9.0
22  1 1 2   0   0  1.514283e+03 -1.024996e+03 -3.312830e+03  3.783981e+03 0.0 0.0 9.0
 2  1 1 2 103   0 -1.514283e+03  1.024996e+03  4.212800e+02  1.876472e+03 0.0022 0.0 9.0
#pdf 21 2 2.129925e-01 6.578464e-01 5000.0 1.063954e-01 2.411428e-04
</event>
<event>
4 7 1.0 5000.0 7.905138e-03 7.739137e-02
21 -1 0 0 103 101  0.000000e+00  0.000000e+00  1.353450e+03  1.353450e+03 0.0 0.0 9.0
 2 -1 0 0 101   0  0.000000e+00  0.000000e+00 -4.660580e+03  4.660580e+03 0.0 0.0 9.0
 2  1 1 2 103   0 -2.106940e+03 -1.048605e+03 -6.035769e+02  2.429624e+03 0.0022 0.0 9.0
22  1 1 2   0   0  2.106940e+03  1.048605e+03 -2.703553e+03  3.584406e+03 0.0 0.0 9.0
#pdf 21 2 2.082231e-01 7.170123e-01 5000.0 1.130331e-01 7.637610e-05
</event>
<event>
4 7 1.0 5000.0 7.905138e-03 7.739137e-02
 2 -1 0 0 101   0  0.000000e+00  0.000000e+00  3.303164e+03  3.303164e+03 0.0 0.0 9.0
21 -1 0 0 103 101  0.000000e+00  0.000000e+00 -1.945092e+03  1.945092e+03 0.0 0.0 9.0
22  1 1 2   0   0 -2.581031e+02 -2.332727e+03 -3.121818e+02  2.367634e+03 0.0 0.0 9.0
 2  1 1 2 103   0  2.581031e+02  2.332727e+03  1.670254e+03  2.880622e+03 0.0022 0.0 9.0
#pdf 2 21 5.081790e-01 2.992449e-01 5000.0 6.601207e-02 2.501247e-01
</event>
<event>
4 7 1.0 5000.0 7.905138e-03 7.739137e-02
21 -1 0 0 103 101  0.000000e+00  0.000000e+00  2.511213e+03  2.511213e+03 0.0 0.0 9.0
 2 -1 0 0 101   0  0.000000e+00  0.000000e+00 -2.456454e+03  2.456454e+03 0.0 0.0 9.0
 2  1 1 2 103   0 -2.220827e+03  1.063637e+03 -2.971168e+02  2.480257e+03 0.0022 0.0 9.0
22  1 1 2   0   0  2.220827e+03 -1.063637e+03  3.518766e+02  2.487411e+03 0.0 0.0 9.0
#pdf 21 2 3.863405e-01 3.779160e-01 5000.0 1.244474e-02 1.382918e-02
</event>
<event>
4 7 1.0 5000.0 7.905138e-03 7.739137e-02
21 -1 0 0 103 101  0.000000e+00  0.000000e+00  1.420085e+03  1.420085e+03 0.0 0.0 9.0
 2 -1 0 0 101   0  0.000000e+00  0.000000e+00 -4.356459e+03  4.356459e+03 0.0 0.0 9.0
 2  1 1 2 103   0  9.842252e+02 -2.223852e+03 -8.622038e+02  2.580235e+03 0.0022 0.0 9.0
22  1 1 2   0   0 -9.842252e+02  2.223852e+03 -2.074170e+03  3.196310e+03 0.0 0.0 9.0
#pdf 21 2 2.184747e-01 6.702245e-01 5000.0 9.919618e-02 1.920376e-04
</event>
<event>
4 7 1.0 5000.0 7.905138e-03 7.739137e-02
 2 -1 0 0 101   0  0.000000e+00  0.000000e+00  2.148388e+03  2.148388e+03 0.0 0.0 9.0
21 -1 0 0 103 101  0.000000e+00  0.000000e+00 -2.956712e+03  2.956712e+03 0.0 0.0 9.0
 2  1 1 2 103   0 -1.236883e+03  8.153937e+02  1.660863e+03  2.225581e+03 0.0022 0.0 9.0
22  1 1 2   0   0  1.236883e+03 -8.153937e+02 -2.469187e+03  2.879519e+03 0.0 0.0 9.0
#pdf 2 21 3.305212e-01 4.548788e-01 5000.0 2.131322e-01 9.879542e-02
</event>
<event>
4 7 1.0 5000.0 7.905138e-03 7.739137e-02
 2 -1 0 0 101   0  0.000000e+00  0.000000e+00  3.666658e+03  3.666658e+03 0.0 0.0 9.0
21 -1 0 0 103 101  0.000000e+00  0.000000e+00 -1.733762e+03  1.733762e+03 0.0 0.0 9.0
 2  1 1 2 103   0  7.167053e+02 -1.790937e+03  2.705208e+03  3.322540e+03 0.0022 0.0 9.0
22  1 1 2   0   0 -7.167053e+02  1.790937e+03 -7.723121e+02  2.077880e+03 0.0 0.0 9.0
#pdf 2 21 5.641012e-01 2.667326e-01 5000.0 4.080908e-02 2.914563e-01
</event>
<event>
4 7 1.0 5000.0 7.905138e-03 7.739137e-02
21 -1 0 0 103 101  0.000000e+00  0.000000e+00  2.142193e+03  2.142193e+03 0.0 0.0 9.0
 2 -1 0 0 101   0  0.000000e+00  0.000000e+00 -2.922080e+03  2.922080e+03 0.0 0.0 9.0
22  1 1 2   0   0 -6.350832e+02 -2.238162e+03  5.414713e+02  2.388700e+03 0.0 0.0 9.0
 2  1 1 2 103   0  6.350832e+02  2.238162e+03 -1.321358e+03  2.675572e+03 0.0022 0.0 9.0
#pdf 21 2 3.295681e-01 4.495507e-01 5000.0 2.507851e-02 5.549203e-03
</event>
<event>
4 7 1.0 5000.0 7.905138e-03 7.739137e-02
21 -1 0 0 103 101  0.000000e+00  0.000000e+00  3.290492e+03  3.290492e+03 0.0 0.0 9.0
 2 -1 0 0 101   0  0.000000e+00  0.000000e+00 -1.923653e+03  1.923653e+03 0.0 0.0 9.0
22  1 1 2   0   0 -1.302435e+03  2.095238e+03  1.721790e+02  2.473056e+03 0.0 0.0 9.0
 2  1 1 2 103   0  1.302435e+03 -2.095238e+03  1.194659e+03  2.741089e+03 0.0022 0.0 9.0
#pdf 21 2 5.062295e-01 2.959466e-01 5000.0 2.585311e-03 3.788842e-02
</event>
<event>
4 7 1.0 5000.0 7.905138e-03 7.739137e-02
 2 -1 0 0 101   0  0.000000e+00  0.000000e+00  2.389020e+03  2.389020e+03 0.0 0.0 9.0
21 -1 0 0 103 101  0.000000e+00  0.000000e+00 -2.601718e+03  2.601718e+03 0.0 0.0 9.0
22  1 1 2   0   0 -1.990944e+03  2.081607e+02  1.381060e+03  2.431978e+03 0.0 0.0 9.0
 2  1 1 2 103   0  1.990944e+03 -2.081607e+02 -1.593758e+03  2.558761e+03 0.0022 0.0 9.0
#pdf 2 21 3.675415e-01 4.002644e-01 5000.0 1.734391e-01 1.423397e-01
</event>
<event>
4 7 1.0 5000.0 7.905138e-03 7.739137e-02
21 -1 0 0 103 101  0.000000e+00  0.000000e+00  2.198994e+03  2.198994e+03 0.0 0.0 9.0
 2 -1 0 0 101   0  0.000000e+00  0.000000e+00 -2.797185e+03  2.797185e+03 0.0 0.0 9.0
22  1 1 2   0   0 -2.067299e+03  1.102200e+03  5.206953e+02  2.399936e+03 0.0 0.0 9.0
 2  1 1 2 103   0  2.067299e+03 -1.102200e+03 -1.118887e+03  2.596243e+03 0.0022 0.0 9.0
#pdf 21 2 3.383067e-01 4.303362e-01 5000.0 2.252574e-02 7.120324e-03
</event>
<event>
4 7 1.0 5000.0 7.905138e-03 7.739137e-02
21 -1 0 0 103 101  0.000000e+00  0.000000e+00  4.598910e+03  4.598910e+03 0.0 0.0 9.0
 2 -1 0 0 101   0  0.000000e+00  0.000000e+00 -1.354271e+03  1.354271e+03 0.0 0.0 9.0
 2  1 1 2 103   0 -9.461936e+01  1.125170e+03 -1.032178e+03  1.529821e+03 0.0022 0.0 9.0
22  1 1 2   0   0  9.461936e+01 -1.125170e+03  4.276816e+03  4.423360e+03 0.0 0.0 9.0
#pdf 21 2 7.075246e-01 2.083495e-01 5000.0 9.292356e-05 1.128514e-01
</event>
<event>
4 7 1.0 5000.0 7.905138e-03 7.739137e-02
 2 -1 0 0 101   0  0.000000e+00  0.000000e+00  1.527758e+03  1.527758e+03 0.0 0.0 9.0
21 -1 0 0 103 101  0.000000e+00  0.000000e+00 -4.006183e+03  4.006183e+03 0.0 0.0 9.0
22  1 1 2   0   0  6.593702e+02 -1.299222e+03  9.970289e+02  1.765450e+03 0.0 0.0 9.0
 2  1 1 2 103   0 -6.593702e+02  1.299222e+03 -3.475453e+03  3.768491e+03 0.0022 0.0 9.0
#pdf 2 21 2.350397e-01 6.163358e-01 5000.0 3.338229e-01 2.438431e-02
</event>
<event>
4 7 1.0 5000.0 7.905138e-03 7.739137e-02
 2 -1 0 0 101   0  0.000000e+00  0.000000e+00  1.922928e+03  1.922928e+03 0.0 0.0 9.0
21 -1 0 0 103 101  0.000000e+00  0.000000e+00 -3.394816e+03  3.394816e+03 0.0 0.0 9.0
22  1 1 2   0   0 -6.865707e+02  2.460962e+03 -7.532339e+02  2.663658e+03 0.0 0.0 9.0
 2  1 1 2 103   0  6.865707e+02 -2.460962e+03 -7.186538e+02  2.654086e+03 0.0022 0.0 9.0
#pdf 2 21 2.958351e-01 5.222794e-01 5000.0 2.543196e-01 5.882712e-02
</event>
<event>
4 7 1.0 5000.0 7.905138e-03 7.739137e-02
21 -1 0 0 103 101  0.000000e+00  0.000000e+00  3.833127e+03  3.833127e+03 0.0 0.0 9.0
 2 -1 0 0 101   0  0.000000e+00  0.000000e+00 -1.613878e+03  1.613878e+03 0.0 0.0 9.0
22  1 1 2   0   0 -8.804215e+02  1.246908e+03 -1.040680e+03  1.847414e+03 0.0 0.0 9.0
 2  1 1 2 103   0  8.804215e+02 -1.246908e+03  3.259929e+03  3.599592e+03 0.0022 0.0 9.0
#pdf 21 2 5.897119e-01 2.482889e-01 5000.0 7.555067e-04 6.814990e-02
</event>
<event>
4 7 1.0 5000.0 7.905138e-03 7.739137e-02
 2 -1 0 0 101   0  0.000000e+00  0.000000e+00  2.413781e+03  2.413781e+03 0.0 0.0 9.0
21 -1 0 0 103 101  0.000000e+00  0.000000e+00 -2.504933e+03  2.504933e+03 0.0 0.0 9.0
 2  1 1 2 103   0  2.274400e+03 -6.504875e+02 -7.167567e+02  2.471795e+03 0.0022 0.0 9.0
22  1 1 2   0   0 -2.274400e+03  6.504875e+02  6.256049e+02  2.446919e+03 0.0 0.0 9.0
#pdf 2 21 3.713510e-01 3.853743e-01 5000.0 1.696192e-01 1.560305e-01
</event>
<event>
4 7 1.0 5000.0 7.905138e-03 7.739137e-02
 2 -1 0 0 101   0  0.000000e+00  0.000000e+00  1.397416e+03  1.397416e+03 0.0 0.0 9.0
21 -1 0 0 103 101  0.000000e+00  0.000000e+00 -4.410172e+03  4.410172e+03 0.0 0.0 9.0
22  1 1 2   0   0  2.154260e+03 -2.877136e+00 -2.949433e+03  3.652396e+03 0.0 0.0 9.0
 2  1 1 2 103   0 -2.154260e+03  2.877136e+00 -6.332295e+01  2.155192e+03 0.0022 0.0 9.0
#pdf 2 21 2.149871e-01 6.784880e-01 5000.0 3.613014e-01 1.187538e-02
</event>
<event>
4 7 1.0 5000.0 7.905138e-03 7.739137e-02
21 -1 0 0 103 101  0.000000e+00  0.000000e+00  2.108110e+03  2.108110e+03 0.0 0.0 9.0
 2 -1 0 0 101   0  0.000000e+00  0.000000e+00 -2.986990e+03  2.986990e+03 0.0 0.0 9.0
 2  1 1 2 103   0 -1.175557e+03 -4.901037e+02 -2.634464e+03  2.926181e+03 0.0022 0.0 9.0
22  1 1 2   0   0  1.175557e+03  4.901037e+02  1.755584e+03  2.168919e+03 0.0 0.0 9.0
#pdf 21 2 3.243246e-01 4.595370e-01 5000.0 2.673959e-02 4.865438e-03
</event>
<event>
4 7 1.0 5000.0 7.905138e-03 7.739137e-02
 2 -1 0 0 101   0  0.000000e+00  0.000000e+00  2.726404e+03  2.726404e+03 0.0 0.0 9.0
21 -1 0 0 103 101  0.000000e+00  0.000000e+00 -2.176481e+03  2.176481e+03 0.0 0.0 9.0
 2  1 1 2 103   0 -1.252443e+03 -1.896806e+03  1.156584e+03  2.550328e+03 0.0022 0.0 9.0
22  1 1 2   0   0  1.252443e+03  1.896806e+03 -6.066613e+02  2.352557e+03 0.0 0.0 9.0
#pdf 2 21 4.194467e-01 3.348433e-01 5000.0 1.258462e-01 2.082612e-01
</event>
<event>
4 7 1.0 5000.0 7.905138e-03 7.739137e-02
21 -1 0 0 103 101  0.000000e+00  0.000000e+00  1.539826e+03  1.539826e+03 0.0 0.0 9.0
 2 -1 0 0 101   0  0.000000e+00  0.000000e+00 -4.187893e+03  4.187893e+03 0.0 0.0 9.0
 2  1 1 2 103   0  6.859260e+02  1.537041e+03  8.203899e+02  1.872440e+03 0.0022 0.0 9.0
22  1 1 2   0   0 -6.859260e+02 -1.537041e+03 -3.468457e+03  3.855280e+03 0.0 0.0 9.0
#pdf 21 2 2.368963e-01 6.442912e-01 5000.0 7.859973e-02 3.062465e-04
</event>
<event>
4 7 1.0 5000.0 7.905138e-03 7.739137e-02
 2 -1 0 0 101   0  0.000000e+00  0.000000e+00  1.381281e+03  1.381281e+03 0.0 0.0 9.0
21 -1 0 0 103 101  0.000000e+00  0.000000e+00 -4.351207e+03  4.351207e+03 0.0 0.0 9.0
 2  1 1 2 103   0  6.075146e+00  2.426269e+03 -1.895700e+03  3.079042e+03 0.0022 0.0 9.0
22  1 1 2   0   0 -6.075146e+00 -2.426269e+03 -1.074225e+03  2.653446e+03 0.0 0.0 9.0
#pdf 2 21 2.125048e-01 6.694164e-01 5000.0 3.647310e-01 1.330576e-02
</event>
<event>
4 7 1.0 5000.0 7.905138e-03 7.739137e-02
 2 -1 0 0 101   0  0.000000e+00  0.000000e+00  1.884128e+03  1.884128e+03 0.0 0.0 9.0
21 -1 0 0 103 101  0.000000e+00  0.000000e+00 -3.213493e+03  3.213493e+03 0.0 0.0 9.0
22  1 1 2   0   0 -6.632146e+02 -1.278625e+02  1.786224e+03  1.909659e+03 0.0 0.0 9.0
 2  1 1 2 103   0  6.632146e+02  1.278625e+02 -3.115589e+03  3.187962e+03 0.0022 0.0 9.0
#pdf 2 21 2.898658e-01 4.943836e-01 5000.0 2.617665e-01 7.362452e-02
</event>
<event>
4 7 1.0 5000.0 7.905138e-03 7.739137e-02
 2 -1 0 0 101   0  0.000000e+00  0.000000e+00  2.930802e+03  2.930802e+03 0.0 0.0 9.0
21 -1 0 0 103 101  0.000000e+00  0.000000e+00 -2.161905e+03  2.161905e+03 0.0 0.0 9.0
 2  1 1 2 103   0 -3.229656e+02 -2.398376e+03 -3.161145e+02  2.440583e+03 0.0022 0.0 9.0
22  1 1 2   0   0  3.229656e+02  2.398376e+03  1.085011e+03  2.652125e+03 0.0 0.0 9.0
#pdf 2 21 4.508926e-01 3.326008e-01 5000.0 1.016228e-01 2.107801e-01
</event>
<event>
4 7 1.0 5000.0 7.905138e-03 7.739137e-02
 2 -1 0 0 101   0  0.000000e+00  0.000000e+00  2.412307e+03  2.412307e+03 0.0 0.0 9.0
21 -1 0 0 103 101  0.000000e+00  0.000000e+00 -2.597609e+03  2.597609e+03 0.0 0.0 9.0
22  1 1 2   0   0  1.458338e+03 -1.354968e+03  1.426130e+03  2.448783e+03 0.0 0.0 9.0
 2  1 1 2 103   0 -1.458338e+03  1.354968e+03 -1.611432e+03  2.561133e+03 0.0022 0.0 9.0
#pdf 2 21 3.711241e-01 3.996322e-01 5000.0 1.698448e-01 1.429058e-01
</event>
<event>
4 7 1.0 5000.0 7.905138e-03 7.739137e-02
 2 -1 0 0 101   0  0.000000e+00  0.000000e+00  3.812687e+03  3.812687e+03 0.0 0.0 9.0
21 -1 0 0 103 101  0.000000e+00  0.000000e+00 -1.697864e+03  1.697864e+03 0.0 0.0 9.0
22  1 1 2   0   0  1.539598e+03 -1.744057e+03  2.173046e+03  3.183430e+03 0.0 0.0 9.0
 2  1 1 2 103   0 -1.539598e+03  1.744057e+03 -5.822344e+01  2.327120e+03 0.0022 0.0 9.0
#pdf 2 21 5.865672e-01 2.612098e-01 5000.0 3.297470e-02 2.987095e-01
</event>
<event>
4 7 1.0 5000.0 7.905138e-03 7.739137e-02
21 -1 0 0 103 101  0.000000e+00  0.000000e+00  2.131697e+03  2.131697e+03 0.0 0.0 9.0
 2 -1 0 0 101   0  0.000000e+00  0.000000e+00 -2.914287e+03  2.914287e+03 0.0 0.0 9.0
 2  1 1 2 103   0  1.093352e+02 -6.938583e+02 -2.812025e+03  2.898427e+03 0.0022 0.0 9.0
22  1 1 2   0   0 -1.093352e+02  6.938583e+02  2.029435e+03  2.147557e+03 0.0 0.0 9.0
#pdf 21 2 3.279534e-01 4.483518e-01 5000.0 2.557895e-02 5.634885e-03
</event>
<event>
4 7 1.0 5000.0 7.905138e-03 7.739137e-02
 2 -1 0 0 101   0  0.000000e+00  0.000000e+00  2.184463e+03  2.184463e+03 0.0 0.0 9.0
21 -1 0 0 103 101  0.000000e+00  0.000000e+00 -2.450160e+03  2.450160e+03 0.0 0.0 9.0
 2  1 1 2 103   0  1.902613e+03 -7.238761e+02  9.682114e+02  2.254189e+03 0.0022 0.0 9.0
22  1 1 2   0   0 -1.902613e+03  7.238761e+02 -1.233909e+03  2.380434e+03 0.0 0.0 9.0
#pdf 2 21 3.360712e-01 3.769477e-01 5000.0 2.068899e-01 1.641195e-01
</event>
<event>
4 7 1.0 5000.0 7.905138e-03 7.739137e-02
 2 -1 0 0 101   0  0.000000e+00  0.000000e+00  1.437273e+03  1.437273e+03 0.0 0.0 9.0
21 -1 0 0 103 101  0.000000e+00  0.000000e+00 -4.331760e+03  4.331760e+03 0.0 0.0 9.0
 2  1 1 2 103   0 -1.245530e+03 -2.523882e+02 -3.929593e+03  4.129982e+03 0.0022 0.0 9.0
22  1 1 2   0   0  1.245530e+03  2.523882e+02  1.035106e+03  1.639052e+03 0.0 0.0 9.0
#pdf 2 21 2.211190e-01 6.664247e-01 5000.0 3.528792e-01 1.379969e-02
</event>
<event>
4 7 1.0 5000.0 7.905138e-03 7.739137e-02
 2 -1 0 0 101   0  0.000000e+00  0.000000e+00  1.926175e+03  1.926175e+03 0.0 0.0 9.0
21 -1 0 0 103 101  0.000000e+00  0.000000e+00 -3.262543e+03  3.262543e+03 0.0 0.0 9.0
22  1 1 2   0   0 -1.118697e+02  1.207369e+03  1.602496e+03  2.009539e+03 0.0 0.0 9.0
 2  1 1 2 103   0  1.118697e+02 -1.207369e+03 -2.938864e+03  3.179179e+03 0.0022 0.0 9.0
#pdf 2 21 2.963346e-01 5.019297e-01 5000.0 2.537022e-01 6.938800e-02
</event>
<event>
4 7 1.0 5000.0 7.905138e-03 7.739137e-02
 2 -1 0 0 101   0  0.000000e+00  0.000000e+00  2.567643e+03  2.567643e+03 0.0 0.0 9.0
21 -1 0 0 103 101  0.000000e+00  0.000000e+00 -2.355177e+03  2.355177e+03 0.0 0.0 9.0
22  1 1 2   0   0  2.316311e+03  5.642510e+02 -4.973049e+02  2.435362e+03 0.0 0.0 9.0
 2  1 1 2 103   0 -2.316311e+03 -5.642510e+02  7.097712e+02  2.487459e+03 0.0022 0.0 9.0
#pdf 2 21 3.950220e-01 3.623349e-01 5000.0 1.470754e-01 1.787416e-01
</event>
<event>
4 7 1.0 5000.0 7.905138e-03 7.739137e-02
 2 -1 0 0 101   0  0.000000e+00  0.000000e+00  2.782657e+03  2.782657e+03 0.0 0.0 9.0
21 -1 0 0 103 101  0.000000e+00  0.000000e+00 -2.236287e+03  2.236287e+03 0.0 0.0 9.0
 2  1 1 2 103   0  1.024017e+03 -1.113513e+03  2.268550e+03  2.726691e+03 0.0022 0.0 9.0
22  1 1 2   0   0 -1.024017e+03  1.113513e+03 -1.722180e+03  2.292254e+03 0.0 0.0 9.0
#pdf 2 21 4.281011e-01 3.440442e-01 5000.0 1.188333e-01 1.981001e-01
</event>
<event>
4 7 1.0 5000.0 7.905138e-03 7.739137e-02
21 -1 0 0 103 101  0.000000e+00  0.000000e+00  2.635026e+03  2.635026e+03 0.0 0.0 9.0
 2 -1 0 0 101   0  0.000000e+00  0.000000e+00 -2.424574e+03  2.424574e+03 0.0 0.0 9.0
 2  1 1 2 103   0 -1.415492e+03  1.108517e+03 -1.672935e+03  2.455838e+03 0.0022 0.0 9.0
22  1 1 2   0   0  1.415492e+03 -1.108517e+03  1.883387e+03  2.603762e+03 0.0 0.0 9.0
#pdf 21 2 4.053886e-01 3.730114e-01 5000.0 9.791204e-03 1.468511e-02
</event>
<event>
4 7 1.0 5000.0 7.905138e-03 7.739137e-02
 2 -1 0 0 101   0  0.000000e+00  0.000000e+00  2.539047e+03  2.539047e+03 0.0 0.0 9.0
21 -1 0 0 103 101  0.000000e+00  0.000000e+00 -2.681629e+03  2.681629e+03 0.0 0.0 9.0
22  1 1 2   0   0 -1.117886e+03 -2.086814e+03  1.026534e+03  2.580355e+03 0.0 0.0 9.0
 2  1 1 2 103   0  1.117886e+03  2.086814e+03 -1.169116e+03  2.640321e+03 0.0022 0.0 9.0
#pdf 2 21 3.906226e-01 4.125584e-01 5000.0 1.511191e-01 1.316204e-01
</event>
<event>
4 7 1.0 5000.0 7.905138e-03 7.739137e-02
 2 -1 0 0 101   0  0.000000e+00  0.000000e+00  2.087050e+03  2.087050e+03 0.0 0.0 9.0
21 -1 0 0 103 101  0.000000e+00  0.000000e+00 -3.108398e+03  3.108398e+03 0.0 0.0 9.0
22  1 1 2   0   0  2.231200e+02  1.160336e+03 -2.811953e+03  3.050122e+03 0.0 0.0 9.0
 2  1 1 2 103   0 -2.231200e+02 -1.160336e+03  1.790604e+03  2.145327e+03 0.0022 0.0 9.0
#pdf 2 21 3.210846e-01 4.782151e-01 5000.0 2.239840e-01 8.330789e-02
</event>
<event>
4 7 1.0 5000.0 7.905138e-03 7.739137e-02
 2 -1 0 0 101   0  0.000000e+00  0.000000e+00  1.508588e+03  1.508588e+03 0.0 0.0 9.0
21 -1 0 0 103 101  0.000000e+00  0.000000e+00 -4.210771e+03  4.210771e+03 0.0 0.0 9.0
22  1 1 2   0   0  2.444810e+03 -3.567237e+02 -7.860885e+02  2.592737e+03 0.0 0.0 9.0
 2  1 1 2 103   0 -2.444810e+03  3.567237e+02 -1.916095e+03  3.126622e+03 0.0022 0.0 9.0
#pdf 2 21 2.320904e-01 6.478109e-01 5000.0 3.378631e-01 1.722270e-02
</event>
<event>
4 7 1.0 5000.0 7.905138e-03 7.739137e-02
 2 -1 0 0 101   0  0.000000e+00  0.000000e+00  3.606687e+03  3.606687e+03 0.0 0.0 9.0
21 -1 0 0 103 101  0.000000e+00  0.000000e+00 -1.907946e+03  1.907946e+03 0.0 0.0 9.0
 2  1 1 2 103   0 -2.240811e+03 -9.720678e+02 -1.561947e+02  2.447560e+03 0.0022 0.0 9.0
22  1 1 2   0   0  2.240811e+03  9.720678e+02  1.854936e+03  3.067073e+03 0.0 0.0 9.0
#pdf 2 21 5.548749e-01 2.935301e-01 5000.0 4.437652e-02 2.571810e-01
</event>
<event>
4 7 1.0 5000.0 7.905138e-03 7.739137e-02
 2 -1 0 0 101   0  0.000000e+00  0.000000e+00  2.040502e+03  2.040502e+03 0.0 0.0 9.0
21 -1 0 0 103 101  0.000000e+00  0.000000e+00 -3.076449e+03  3.076449e+03 0.0 0.0 9.0
22  1 1 2   0   0  1.908705e+03 -7.147467e+02 -2.006006e+03  2.859734e+03 0.0 0.0 9.0
 2  1 1 2 103   0 -1.908705e+03  7.147467e+02  9.700590e+02  2.257217e+03 0.0022 0.0 9.0
#pdf 2 21 3.139234e-01 4.732998e-01 5000.0 2.323916e-01 8.642153e-02
</event>
<event>
4 7 1.0 5000.0 7.905138e-03 7.739137e-02
 2 -1 0 0 101   0  0.000000e+00  0.000000e+00  3.773410e+03  3.773410e+03 0.0 0.0 9.0
21 -1 0 0 103 101  0.000000e+00  0.000000e+00 -1.661487e+03  1.661487e+03 0.0 0.0 9.0
 2  1 1 2 103   0  2.091444e+03 -1.360428e+03  1.285089e+03  2.806484e+03 0.0022 0.0 9.0
22  1 1 2   0   0 -2.091444e+03  1.360428e+03  8.268338e+02  2.628413e+03 0.0 0.0 9.0
#pdf 2 21 5.805246e-01 2.556134e-01 5000.0 3.495931e-02 3.061043e-01
</event>
<event>
4 7 1.0 5000.0 7.905138e-03 7.739137e-02
21 -1 0 0 103 101  0.000000e+00  0.000000e+00  2.398319e+03  2.398319e+03 0.0 0.0 9.0
 2 -1 0 0 101   0  0.000000e+00  0.000000e+00 -2.319445e+03  2.319445e+03 0.0 0.0 9.0
 2  1 1 2 103   0 -3.990934e+02 -2.318860e+03  2.018897e+02  2.361598e+03 0.0022 0.0 9.0
22  1 1 2   0   0  3.990934e+02  2.318860e+03 -1.230152e+02  2.356166e+03 0.0 0.0 9.0
#pdf 21 2 3.689722e-01 3.568377e-01 5000.0 1.543238e-02 1.793131e-02
</event>
<event>
4 7 1.0 5000.0 7.905138e-03 7.739137e-02
21 -1 0 0 103 101  0.000000e+00  0.000000e+00  2.007644e+03  2.007644e+03 0.0 0.0 9.0
 2 -1 0 0 101   0  0.000000e+00  0.000000e+00 -2.939449e+03  2.939449e+03 0.0 0.0 9.0
22  1 1 2   0   0 -2.163008e+03 -1.085124e+03 -6.825535e+02  2.514354e+03 0.0 0.0 9.0
 2  1 1 2 103   0  2.163008e+03  1.085124e+03 -2.492518e+02  2.432740e+03 0.0022 0.0 9.0
#pdf 21 2 3.088683e-01 4.522230e-01 5000.0 3.234424e-02 5.360479e-03
</event>
<event>
4 7 1.0 5000.0 7.905138e-03 7.739137e-02
21 -1 0 0 103 101  0.000000e+00  0.000000e+00  2.217804e+03  2.217804e+03 0.0 0.0 9.0
 2 -1 0 0 101   0  0.000000e+00  0.000000e+00 -2.826249e+03  2.826249e+03 0.0 0.0 9.0
 2  1 1 2 103   0 -9.878179e+02  7.458173e+02 -2.496475e+03  2.786470e+03 0.0022 0.0 9.0
22  1 1 2   0   0  9.878179e+02 -7.458173e+02  1.888030e+03  2.257584e+03 0.0 0.0 9.0
#pdf 21 2 3.412007e-01 4.348076e-01 5000.0 2.174103e-02 6.725126e-03
</event>
<event>
4 7 1.0 5000.0 7.905138e-03 7.739137e-02
21 -1 0 0 103 101  0.000000e+00  0.000000e+00  1.569710e+03  1.569710e+03 0.0 0.0 9.0
 2 -1 0 0 101   0  0.000000e+00  0.000000e+00 -4.000304e+03  4.000304e+03 0.0 0.0 9.0
 2  1 1 2 103   0  1.198371e+03  1.851570e+03 -2.537308e+03  3.361895e+03 0.0022 0.0 9.0
22  1 1 2   0   0 -1.198371e+03 -1.851570e+03  1.067137e+02  2.208119e+03 0.0 0.0 9.0
#pdf 21 2 2.414938e-01 6.154314e-01 5000.0 7.421006e-02 4.996742e-04
</event>
<event>
4 7 1.0 5000.0 7.905138e-03 7.739137e-02
21 -1 0 0 103 101  0.000000e+00  0.000000e+00  3.189089e+03  3.189089e+03 0.0 0.0 9.0
 2 -1 0 0 101   0  0.000000e+00  0.000000e+00 -1.970641e+03  1.970641e+03 0.0 0.0 9.0
 2  1 1 2 103   0 -1.835667e+03  8.125499e+02 -9.360242e+02  2.214961e+03 0.0022 0.0 9.0
22  1 1 2   0   0  1.835667e+03 -8.125499e+02  2.154473e+03  2.944769e+03 0.0 0.0 9.0
#pdf 21 2 4.906291e-01 3.031755e-01 5000.0 3.204906e-03 3.466753e-02
</event>
<event>
4 7 1.0 5000.0 7.905138e-03 7.739137e-02
 2 -1 0 0 101   0  0.000000e+00  0.000000e+00  1.499642e+03  1.499642e+03 0.0 0.0 9.0
21 -1 0 0 103 101  0.000000e+00  0.000000e+00 -3.064337e+03  3.064337e+03 0.0 0.0 9.0
 2  1 1 2 103   0  6.054617e+02  2.007877e+03 -3.095626e+02  2.119902e+03 0.0022 0.0 9.0
22  1 1 2   0   0 -6.054617e+02 -2.007877e+03 -1.255133e+03  2.444077e+03 0.0 0.0 9.0
#pdf 2 21 2.307141e-01 4.714365e-01 5000.0 3.397502e-01 8.762249e-02
</event>
<event>
4 7 1.0 5000.0 7.905138e-03 7.739137e-02
21 -1 0 0 103 101  0.000000e+00  0.000000e+00  1.434825e+03  1.434825e+03 0.0 0.0 9.0
 2 -1 0 0 101   0  0.000000e+00  0.000000e+00 -3.078720e+03  3.078720e+03 0.0 0.0 9.0
22  1 1 2   0   0  1.243177e+03 -1.316854e+03 -1.967308e+03  2.673929e+03 0.0 0.0 9.0
 2  1 1 2 103   0 -1.243177e+03  1.316854e+03  3.234124e+02  1.839617e+03 0.0022 0.0 9.0
#pdf 21 2 2.207423e-01 4.736493e-01 5000.0 9.635581e-02 4.033181e-03
</event>
<event>
4 7 1.0 5000.0 7.905138e-03 7.739137e-02
 2 -1 0 0 101   0  0.000000e+00  0.000000e+00  1.454053e+03  1.454053e+03 0.0 0.0 9.0
21 -1 0 0 103 101  0.000000e+00  0.000000e+00 -4.409391e+03  4.409391e+03 0.0 0.0 9.0
 2  1 1 2 103   0  4.661807e+02  9.143080e+02  1.202443e+03  1.580871e+03 0.0022 0.0 9.0
22  1 1 2   0   0 -4.661807e+02 -9.143080e+02 -4.157782e+03  4.282573e+03 0.0 0.0 9.0
#pdf 2 21 2.237004e-01 6.783679e-01 5000.0 3.493467e-01 1.189352e-02
</event>
<event>
4 7 1.0 5000.0 7.905138e-03 7.739137e-02
21 -1 0 0 103 101  0.000000e+00  0.000000e+00  4.211280e+03  4.211280e+03 0.0 0.0 9.0
 2 -1 0 0 101   0  0.000000e+00  0.000000e+00 -1.380158e+03  1.380158e+03 0.0 0.0 9.0
 2  1 1 2 103   0  1.312319e+02  2.342643e+03  2.058124e+03  3.121069e+03 0.0022 0.0 9.0
22  1 1 2   0   0 -1.312319e+02 -2.342643e+03  7.729984e+02  2.470369e+03 0.0 0.0 9.0
#pdf 21 2 6.478892e-01 2.123320e-01 5000.0 2.874437e-04 1.072938e-01
</event>
<event>
4 7 1.0 5000.0 7.905138e-03 7.739137e-02
21 -1 0 0 103 101  0.000000e+00  0.000000e+00  2.720064e+03  2.720064e+03 0.0 0.0 9.0
 2 -1 0 0 101   0  0.000000e+00  0.000000e+00 -2.306697e+03  2.306697e+03 0.0 0.0 9.0
 2  1 1 2 103   0 -1.724621e+03  6.511540e+02  1.908337e+03  2.653313e+03 0.0022 0.0 9.0
22  1 1 2   0   0  1.724621e+03 -6.511540e+02 -1.494971e+03  2.373448e+03 0.0 0.0 9.0
#pdf 21 2 4.184713e-01 3.548765e-01 5000.0 8.290265e-03 1.837260e-02
</event>
<event>
4 7 1.0 5000.0 7.905138e-03 7.739137e-02
 2 -1 0 0 101   0  0.000000e+00  0.000000e+00  1.600557e+03  1.600557e+03 0.0 0.0 9.0
21 -1 0 0 103 101  0.000000e+00  0.000000e+00 -3.942682e+03  3.942682e+03 0.0 0.0 9.0
 2  1 1 2 103   0  8.476935e+02  2.005024e+03 -2.554306e+03  3.356067e+03 0.0022 0.0 9.0
22  1 1 2   0   0 -8.476935e+02 -2.005024e+03  2.121806e+02  2.187173e+03 0.0 0.0 9.0
#pdf 2 21 2.462396e-01 6.065665e-01 5000.0 3.186863e-01 2.699734e-02
</event>
<event>
4 7 1.0 5000.0 7.905138e-03 7.739137e-02
21 -1 0 0 103 101  0.000000e+00  0.000000e+00  4.273060e+03  4.273060e+03 0.0 0.0 9.0
 2 -1 0 0 101   0  0.000000e+00  0.000000e+00 -1.332897e+03  1.332897e+03 0.0 0.0 9.0
 2  1 1 2 103   0 -1.522567e+03 -1.503295e+02  3.621284e+03  3.931222e+03 0.0022 0.0 9.0
22  1 1 2   0   0  1.522567e+03  1.503295e+02 -6.811222e+02  1.674735e+03 0.0 0.0 9.0
#pdf 21 2 6.573938e-01 2.050611e-01 5000.0 2.431130e-04 1.177417e-01
</event>
<event>
4 7 1.0 5000.0 7.905138e-03 7.739137e-02
 2 -1 0 0 101   0  0.000000e+00  0.000000e+00  2.755086e+03  2.755086e+03 0.0 0.0 9.0
21 -1 0 0 103 101  0.000000e+00  0.000000e+00 -2.261597e+03  2.261597e+03 0.0 0.0 9.0
22  1 1 2   0   0  2.458757e+02  1.107643e+03  2.480994e+03  2.728124e+03 0.0 0.0 9.0
 2  1 1 2 103   0 -2.458757e+02 -1.107643e+03 -1.987505e+03  2.288559e+03 0.0022 0.0 9.0
#pdf 2 21 4.238594e-01 3.479380e-01 5000.0 1.222358e-01 1.938815e-01
</event>
<event>
4 7 1.0 5000.0 7.905138e-03 7.739137e-02
21 -1 0 0 103 101  0.000000e+00  0.000000e+00  2.828514e+03  2.828514e+03 0.0 0.0 9.0
 2 -1 0 0 101   0  0.000000e+00  0.000000e+00 -1.860411e+03  1.860411e+03 0.0 0.0 9.0
 2  1 1 2 103   0  1.867150e+03 -5.302088e+02  1.733606e+03  2.602453e+03 0.0022 0.0 9.0
22  1 1 2   0   0 -1.867150e+03  5.302088e+02 -7.655027e+02  2.086472e+03 0.0 0.0 9.0
#pdf 21 2 4.351560e-01 2.862170e-01 5000.0 6.695253e-03 4.264883e-02
</event>
<event>
4 7 1.0 5000.0 7.905138e-03 7.739137e-02
 2 -1 0 0 101   0  0.000000e+00  0.000000e+00  1.734570e+03  1.734570e+03 0.0 0.0 9.0
21 -1 0 0 103 101  0.000000e+00  0.000000e+00 -3.614051e+03  3.614051e+03 0.0 0.0 9.0
 2  1 1 2 103   0 -1.607942e+02 -2.348201e+03 -1.851667e+03  2.994757e+03 0.0022 0.0 9.0
22  1 1 2   0   0  1.607942e+02  2.348201e+03 -2.781434e+01  2.353864e+03 0.0 0.0 9.0
#pdf 2 21 2.668570e-01 5.560079e-01 5000.0 2.912935e-01 4.393056e-02
</event>
<event>
4 7 1.0 5000.0 7.905138e-03 7.739137e-02
21 -1 0 0 103 101  0.000000e+00  0.000000e+00  1.507300e+03  1.507300e+03 0.0 0.0 9.0
 2 -1 0 0 101   0  0.000000e+00  0.000000e+00 -4.148705e+03  4.148705e+03 0.0 0.0 9.0
22  1 1 2   0   0  1.878307e+03 -6.573059e+02 -3.033279e+03  3.627791e+03 0.0 0.0 9.0
 2  1 1 2 103   0 -1.878307e+03  6.573059e+02  3.918740e+02  2.028214e+03 0.0022 0.0 9.0
#pdf 21 2 2.318923e-01 6.382623e-01 5000.0 8.363863e-02 3.400926e-04
</event>
<event>
4 7 1.0 5000.0 7.905138e-03 7.739137e-02
21 -1 0 0 103 101  0.000000e+00  0.000000e+00  3.221687e+03  3.221687e+03 0.0 0.0 9.0
 2 -1 0 0 101   0  0.000000e+00  0.000000e+00 -1.938082e+03  1.938082e+03 0.0 0.0 9.0
22  1 1 2   0   0 -2.032810e+03 -1.647873e+01 -8.583943e+02  2.206678e+03 0.0 0.0 9.0
 2  1 1 2 103   0  2.032810e+03  1.647873e+01  2.141999e+03  2.953091e+03 0.0022 0.0 9.0
#pdf 21 2 4.956441e-01 2.981665e-01 5000.0 2.992854e-03 3.685538e-02
</event>
<event>
4 7 1.0 5000.0 7.905138e-03 7.739137e-02
 2 -1 0 0 101   0  0.000000e+00  0.000000e+00  1.530443e+03  1.530443e+03 0.0 0.0 9.0
21 -1 0 0 103 101  0.000000e+00  0.000000e+00 -3.238919e+03  3.238919e+03 0.0 0.0 9.0
22  1 1 2   0   0  2.424704e+02  2.127570e+03 -2.012875e+02  2.150782e+03 0.0 0.0 9.0
 2  1 1 2 103   0 -2.424704e+02 -2.127570e+03 -1.507189e+03  2.618581e+03 0.0022 0.0 9.0
#pdf 2 21 2.354528e-01 4.982953e-01 5000.0 3.332581e-01 7.140613e-02
</event>
<event>
4 7 1.0 5000.0 7.905138e-03 7.739137e-02
 2 -1 0 0 101   0  0.000000e+00  0.000000e+00  3.483648e+03  3.483648e+03 0.0 0.0 9.0
21 -1 0 0 103 101  0.000000e+00  0.000000e+00 -1.756427e+03  1.756427e+03 0.0 0.0 9.0
 2  1 1 2 103   0 -9.325701e+01  2.023909e+03 -6.394992e+02  2.124586e+03 0.0022 0.0 9.0
22  1 1 2   0   0  9.325701e+01 -2.023909e+03  2.366720e+03  3.115489e+03 0.0 0.0 9.0
#pdf 2 21 5.359458e-01 2.702195e-01 5000.0 5.240796e-02 2.869016e-01
</event>
<event>
4 7 1.0 5000.0 7.905138e-03 7.739137e-02
 2 -1 0 0 101   0  0.000000e+00  0.000000e+00  1.669249e+03  1.669249e+03 0.0 0.0 9.0
21 -1 0 0 103 101  0.000000e+00  0.000000e+00 -3.807888e+03  3.807888e+03 0.0 0.0 9.0
22  1 1 2   0   0 -2.422582e+03  7.390577e+01 -3.152330e+02  2.444123e+03 0.0 0.0 9.0
 2  1 1 2 103   0  2.422582e+03 -7.390577e+01 -1.823405e+03  3.033014e+03 0.0022 0.0 9.0
#pdf 2 21 2.568076e-01 5.858289e-01 5000.0 3.045211e-01 3.321264e-02
</event>
<event>
4 7 1.0 5000.0 7.905138e-03 7.739137e-02
21 -1 0 0 103 101  0.000000e+00  0.000000e+00  3.804893e+03  3.804893e+03 0.0 0.0 9.0
 2 -1 0 0 101   0  0.000000e+00  0.000000e+00 -1.638288e+03  1.638288e+03 0.0 0.0 9.0
 2  1 1 2 103   0  1.482100e+03 -9.758159e+02  2.997827e+03  3.483648e+03 0.0022 0.0 9.0
22  1 1 2   0   0 -1.482100e+03  9.758159e+02 -8.312228e+02  1.959533e+03 0.0 0.0 9.0
#pdf 21 2 5.853681e-01 2.520444e-01 5000.0 8.087271e-04 6.507158e-02
</event>
<event>
4 7 1.0 5000.0 7.905138e-03 7.739137e-02
 2 -1 0 0 101   0  0.000000e+00  0.000000e+00  2.613480e+03  2.613480e+03 0.0 0.0 9.0
21 -1 0 0 103 101  0.000000e+00  0.000000e+00 -2.404346e+03  2.404346e+03 0.0 0.0 9.0
22  1 1 2   0   0 -1.999600e+03 -1.182138e+03 -8.385176e+02  2.469607e+03 0.0 0.0 9.0
 2  1 1 2 103   0  1.999600e+03  1.182138e+03  1.047651e+03  2.548219e+03 0.0022 0.0 9.0
#pdf 2 21 4.020738e-01 3.698995e-01 5000.0 1.407273e-01 1.710673e-01
</event>
<event>
4 7 1.0 5000.0 7.905138e-03 7.739137e-02
 2 -1 0 0 101   0  0.000000e+00  0.000000e+00  1.954462e+03  1.954462e+03 0.0 0.0 9.0
21 -1 0 0 103 101  0.000000e+00  0.000000e+00 -3.201727e+03  3.201727e+03 0.0 0.0 9.0
 2  1 1 2 103   0 -9.394409e+02  1.409595e+03  1.273397e+03  2.119209e+03 0.0022 0.0 9.0
22  1 1 2   0   0  9.394409e+02 -1.409595e+03 -2.520663e+03  3.036980e+03 0.0 0.0 9.0
#pdf 2 21 3.006865e-01 4.925734e-01 5000.0 2.483601e-01 7.466742e-02
</event>
<event>
4 7 1.0 5000.0 7.905138e-03 7.739137e-02
21 -1 0 0 103 101  0.000000e+00  0.000000e+00  2.314009e+03  2.314009e+03 0.0 0.0 9.0
 2 -1 0 0 101   0  0.000000e+00  0.000000e+00 -2.691473e+03  2.691473e+03 0.0 0.0 9.0
22  1 1 2   0   0 -1.421267e+03 -2.027076e+02  1.858420e+03  2.348364e+03 0.0 0.0 9.0
 2  1 1 2 103   0  1.421267e+03  2.027076e+02 -2.235885e+03  2.657117e+03 0.0022 0.0 9.0
#pdf 21 2 3.560013e-01 4.140727e-01 5000.0 1.811764e-02 8.767471e-03
</event>
<event>
4 7 1.0 5000.0 7.905138e-03 7.739137e-02
21 -1 0 0 103 101  0.000000e+00  0.000000e+00  2.474100e+03  2.474100e+03 0.0 0.0 9.0
 2 -1 0 0 101   0  0.000000e+00  0.000000e+00 -2.518834e+03  2.518834e+03 0.0 0.0 9.0
 2  1 1 2 103   0 -1.188887e+03  1.486889e+03 -1.637225e+03  2.510935e+03 0.0022 0.0 9.0
22  1 1 2   0   0  1.188887e+03 -1.486889e+03  1.592491e+03  2.481999e+03 0.0 0.0 9.0
#pdf 21 2 3.806308e-01 3.875129e-01 5000.0 1.337016e-02 1.226207e-02
</event>
<event>
4 7 1.0 5000.0 7.905138e-03 7.739137e-02
 2 -1 0 0 101   0  0.000000e+00  0.000000e+00  2.747830e+03  2.747830e+03 0.0 0.0 9.0
21 -1 0 0 103 101  0.000000e+00  0.000000e+00 -2.252163e+03  2.252163e+03 0.0 0.0 9.0
22  1 1 2   0   0 -1.247288e+03  1.163312e+03 -1.572081e+03  2.319582e+03 0.0 0.0 9.0
 2  1 1 2 103   0  1.247288e+03 -1.163312e+03  2.067747e+03  2.680411e+03 0.0022 0.0 9.0
#pdf 2 21 4.227430e-01 3.464866e-01 5000.0 1.231426e-01 1.954479e-01
</event>
<event>
4 7 1.0 5000.0 7.905138e-03 7.739137e-02
 2 -1 0 0 101   0  0.000000e+00  0.000000e+00  3.749604e+03  3.749604e+03 0.0 0.0 9.0
21 -1 0 0 103 101  0.000000e+00  0.000000e+00 -1.561427e+03  1.561427e+03 0.0 0.0 9.0
22  1 1 2   0   0 -1.529599e+03  1.835342e+03  1.514262e+03  2.828630e+03 0.0 0.0 9.0
 2  1 1 2 103   0  1.529599e+03 -1.835342e+03  6.739138e+02  2.482401e+03 0.0022 0.0 9.0
#pdf 2 21 5.768621e-01 2.402196e-01 5000.0 3.620415e-02 3.267699e-01
</event>
<event>
4 7 1.0 5000.0 7.905138e-03 7.739137e-02
 2 -1 0 0 101   0  0.000000e+00  0.000000e+00  2.553058e+03  2.553058e+03 0.0 0.0 9.0
21 -1 0 0 103 101  0.000000e+00  0.000000e+00 -2.442022e+03  2.442022e+03 0.0 0.0 9.0
 2  1 1 2 103   0 -6.545558e+02 -1.512448e+03 -1.820761e+03  2.455832e+03 0.0022 0.0 9.0
22  1 1 2   0   0  6.545558e+02  1.512448e+03  1.931797e+03  2.539248e+03 0.0 0.0 9.0
#pdf 2 21 3.927781e-01 3.756957e-01 5000.0 1.491303e-01 1.653411e-01
</event>
<event>
4 7 1.0 5000.0 7.905138e-03 7.739137e-02
21 -1 0 0 103 101  0.000000e+00  0.000000e+00  3.679361e+03  3.679361e+03 0.0 0.0 9.0
 2 -1 0 0 101   0  0.000000e+00  0.000000e+00 -1.693856e+03  1.693856e+03 0.0 0.0 9.0
 2  1 1 2 103   0  9.435639e+02 -2.267559e+03  5.112714e+02  2.508692e+03 0.0022 0.0 9.0
22  1 1 2   0   0 -9.435639e+02  2.267559e+03  1.474233e+03  2.864525e+03 0.0 0.0 9.0
#pdf 21 2 5.660555e-01 2.605933e-01 5000.0 1.088854e-03 5.847222e-02
</event>
<event>
4 7 1.0 5000.0 7.905138e-03 7.739137e-02
21 -1 0 0 103 101  0.000000e+00  0.000000e+00  2.945110e+03  2.945110e+03 0.0 0.0 9.0
 2 -1 0 0 101   0  0.000000e+00  0.000000e+00 -2.130303e+03  2.130303e+03 0.0 0.0 9.0
 2  1 1 2 103   0 -1.905512e+03 -1.564349e+03 -4.092140e+01  2.465732e+03 0.0022 0.0 9.0
22  1 1 2   0   0  1.905512e+03  1.564349e+03  8.557277e+02  2.609680e+03 0.0 0.0 9.0
#pdf 21 2 4.530938e-01 3.277390e-01 5000.0 5.299699e-03 2.564613e-02
</event>
<event>
4 7 1.0 5000.0 7.905138e-03 7.739137e-02
 2 -1 0 0 101   0  0.000000e+00  0.000000e+00  2.722414e+03  2.722414e+03 0.0 0.0 9.0
21 -1 0 0 103 101  0.000000e+00  0.000000e+00 -2.357891e+03  2.357891e+03 0.0 0.0 9.0
 2  1 1 2 103   0 -1.829369e+03 -7.928847e+02 -1.385075e+03  2.427692e+03 0.0022 0.0 9.0
22  1 1 2   0   0  1.829369e+03  7.928847e+02  1.749598e+03  2.652612e+03 0.0 0.0 9.0
#pdf 2 21 4.188329e-01 3.627524e-01 5000.0 1.263540e-01 1.783131e-01
</event>
<event>
4 7 1.0 5000.0 7.905138e-03 7.739137e-02
 2 -1 0 0 101   0  0.000000e+00  0.000000e+00  2.573867e+03  2.573867e+03 0.0 0.0 9.0
21 -1 0 0 103 101  0.000000e+00  0.000000e+00 -2.475814e+03  2.475814e+03 0.0 0.0 9.0
22  1 1 2   0   0  6.825157e+01  6.970973e+02  2.474728e+03  2.571942e+03 0.0 0.0 9.0
 2  1 1 2 103   0 -6.825157e+01 -6.970973e+02 -2.376676e+03  2.477739e+03 0.0022 0.0 9.0
#pdf 2 21 3.959795e-01 3.808944e-01 5000.0 1.462036e-01 1.603011e-01
</event>
<event>
4 7 1.0 5000.0 7.905138e-03 7.739137e-02
 2 -1 0 0 101   0  0.000000e+00  0.000000e+00  3.150355e+03  3.150355e+03 0.0 0.0 9.0
21 -1 0 0 103 101  0.000000e+00  0.000000e+00 -1.995031e+03  1.995031e+03 0.0 0.0 9.0
22  1 1 2   0   0 -9.115494e+02  1.435459e+03  2.468103e+03  2.997165e+03 0.0 0.0 9.0
 2  1 1 2 103   0  9.115494e+02 -1.435459e+03 -1.312779e+03  2.148221e+03 0.0022 0.0 9.0
#pdf 2 21 4.846701e-01 3.069278e-01 5000.0 7.934206e-02 2.407578e-01
</event>
<event>
4 7 1.0 5000.0 7.905138e-03 7.739137e-02
 2 -1 0 0 101   0  0.000000e+00  0.000000e+00  2.762715e+03  2.762715e+03 0.0 0.0 9.0
21 -1 0 0 103 101  0.000000e+00  0.000000e+00 -2.200686e+03  2.200686e+03 0.0 0.0 9.0
22  1 1 2   0   0 -4.969707e+02 -1.250623e+03 -1.798475e+03  2.246230e+03 0.0 0.0 9.0
 2  1 1 2 103   0  4.969707e+02  1.250623e+03  2.360505e+03  2.717171e+03 0.0022 0.0 9.0
#pdf 2 21 4.250331e-01 3.385670e-01 5000.0 1.212876e-01 2.041174e-01
</event>
<event>
4 7 1.0 5000.0 7.905138e-03 7.739137e-02
21 -1 0 0 103 101  0.000000e+00  0.000000e+00  1.434661e+03  1.434661e+03 0.0 0.0 9.0
 2 -1 0 0 101   0  0.000000e+00  0.000000e+00 -3.685259e+03  3.685259e+03 0.0 0.0 9.0
 2  1 1 2 103   0 -2.035220e+03  9.914513e+02 -6.771883e+02  2.362981e+03 0.0022 0.0 9.0
22  1 1 2   0   0  2.035220e+03 -9.914513e+02 -1.573409e+03  2.756939e+03 0.0 0.0 9.0
#pdf 21 2 2.207171e-01 5.669629e-01 5000.0 9.638690e-02 1.073830e-03
</event>
<event>
4 7 1.0 5000.0 7.905138e-03 7.739137e-02
 2 -1 0 0 101   0  0.000000e+00  0.000000e+00  2.402160e+03  2.402160e+03 0.0 0.0 9.0
21 -1 0 0 103 101  0.000000e+00  0.000000e+00 -2.644986e+03  2.644986e+03 0.0 0.0 9.0
22  1 1 2   0   0  1.496447e+03  1.477208e+02  1.903926e+03  2.426131e+03 0.0 0.0 9.0
 2  1 1 2 103   0 -1.496447e+03 -1.477208e+02 -2.146752e+03  2.621015e+03 0.0022 0.0 9.0
#pdf 2 21 3.695631e-01 4.069210e-01 5000.0 1.714043e-01 1.364668e-01
</event>
<event>
4 7 1.0 5000.0 7.905138e-03 7.739137e-02
 2 -1 0 0 101   0  0.000000e+00  0.000000e+00  1.532973e+03  1.532973e+03 0.0 0.0 9.0
21 -1 0 0 103 101  0.000000e+00  0.000000e+00 -4.058128e+03  4.058128e+03 0.0 0.0 9.0
22  1 1 2   0   0 -1.597181e+02  1.107209e+03  1.236023e+03  1.667086e+03 0.0 0.0 9.0
 2  1 1 2 103   0  1.597181e+02 -1.107209e+03 -3.761179e+03  3.924014e+03 0.0022 0.0 9.0
#pdf 2 21 2.358419e-01 6.243274e-01 5000.0 3.327261e-01 2.238895e-02
</event>
<event>
4 7 1.0 5000.0 7.905138e-03 7.739137e-02
21 -1 0 0 103 101  0.000000e+00  0.000000e+00  3.314278e+03  3.314278e+03 0.0 0.0 9.0
 2 -1 0 0 101   0  0.000000e+00  0.000000e+00 -2.200178e+03  2.200178e+03 0.0 0.0 9.0
 2  1 1 2 103   0  1.492917e+03  8.084320e+02 -1.587078e+03  2.324044e+03 0.0022 0.0 9.0
22  1 1 2   0   0 -1.492917e+03 -8.084320e+02  2.701178e+03  3.190412e+03 0.0 0.0 9.0
#pdf 21 2 5.098889e-01 3.384889e-01 5000.0 2.457236e-03 2.247542e-02
</event>
<event>
4 7 1.0 5000.0 7.905138e-03 7.739137e-02
 2 -1 0 0 101   0  0.000000e+00  0.000000e+00  2.787590e+03  2.787590e+03 0.0 0.0 9.0
21 -1 0 0 103 101  0.000000e+00  0.000000e+00 -2.230130e+03  2.230130e+03 0.0 0.0 9.0
 2  1 1 2 103   0 -1.367678e+03  1.451614e+03 -1.226907e+03  2.341587e+03 0.0022 0.0 9.0
22  1 1 2   0   0  1.367678e+03 -1.451614e+03  1.784367e+03  2.676134e+03 0.0 0.0 9.0
#pdf 2 21 4.288601e-01 3.430969e-01 5000.0 1.182318e-01 1.991340e-01
</event>
<event>
4 7 1.0 5000.0 7.905138e-03 7.739137e-02
21 -1 0 0 103 101  0.000000e+00  0.000000e+00  3.317945e+03  3.317945e+03 0.0 0.0 9.0
 2 -1 0 0 101   0  0.000000e+00  0.000000e+00 -2.071973e+03  2.071973e+03 0.0 0.0 9.0
22  1 1 2   0   0 -9.682404e+02  1.039006e+03  2.888358e+03  3.218639e+03 0.0 0.0 9.0
 2  1 1 2 103   0  9.682404e+02 -1.039006e+03 -1.642386e+03  2.171280e+03 0.0022 0.0 9.0
#pdf 21 2 5.104531e-01 3.187652e-01 5000.0 2.438015e-03 2.862289e-02
</event>
<event>
4 7 1.0 5000.0 7.905138e-03 7.739137e-02
21 -1 0 0 103 101  0.000000e+00  0.000000e+00  4.996364e+03  4.996364e+03 0.0 0.0 9.0
 2 -1 0 0 101   0  0.000000e+00  0.000000e+00 -1.331718e+03  1.331718e+03 0.0 0.0 9.0
22  1 1 2   0   0  1.907514e+03 -1.285534e+03  3.264129e+03  3.993212e+03 0.0 0.0 9.0
 2  1 1 2 103   0 -1.907514e+03  1.285534e+03  4.005176e+02  2.334870e+03 0.0022 0.0 9.0
#pdf 21 2 7.686714e-01 2.048797e-01 5000.0 2.346005e-05 1.180208e-01
</event>
<event>
4 7 1.0 5000.0 7.905138e-03 7.739137e-02
21 -1 0 0 103 101  0.000000e+00  0.000000e+00  1.832000e+03  1.832000e+03 0.0 0.0 9.0
 2 -1 0 0 101   0  0.000000e+00  0.000000e+00 -3.424669e+03  3.424669e+03 0.0 0.0 9.0
22  1 1 2   0   0  2.040099e+02  7.954440e+02 -3.279403e+03  3.380656e+03 0.0 0.0 9.0
 2  1 1 2 103   0 -2.040099e+02 -7.954440e+02  1.686734e+03  1.876013e+03 0.0022 0.0 9.0
#pdf 21 2 2.818462e-01 5.268721e-01 5000.0 4.498870e-02 1.934300e-03
</event>
<event>
4 7 1.0 5000.0 7.905138e-03 7.739137e-02
21 -1 0 0 103 101  0.000000e+00  0.000000e+00  2.204733e+03  2.204733e+03 0.0 0.0 9.0
 2 -1 0 0 101   0  0.000000e+00  0.000000e+00 -2.912619e+03  2.912619e+03 0.0 0.0 9.0
22  1 1 2   0   0  5.740847e+02  1.999376e+03 -1.815220e+03  2.760815e+03 0.0 0.0 9.0
 2  1 1 2 103   0 -5.740847e+02 -1.999376e+03  1.107334e+03  2.356537e+03 0.0022 0.0 9.0
#pdf 21 2 3.391897e-01 4.480953e-01 5000.0 2.228305e-02 5.653423e-03
</event>
<event>
4 7 1.0 5000.0 7.905138e-03 7.739137e-02
21 -1 0 0 103 101  0.000000e+00  0.000000e+00  2.093717e+03  2.093717e+03 0.0 0.0 9.0
 2 -1 0 0 101   0  0.000000e+00  0.000000e+00 -2.962313e+03  2.962313e+03 0.0 0.0 9.0
 2  1 1 2 103   0  8.091952e+02 -1.702090e+03  1.218256e+03  2.244116e+03 0.0022 0.0 9.0
22  1 1 2   0   0 -8.091952e+02  1.702090e+03 -2.086852e+03  2.811914e+03 0.0 0.0 9.0
#pdf 21 2 3.221103e-01 4.557404e-01 5000.0 2.747376e-02 5.117692e-03
</event>
<event>
4 7 1.0 5000.0 7.905138e-03 7.739137e-02
 2 -1 0 0 101   0  0.000000e+00  0.000000e+00  4.995117e+03  4.995117e+03 0.0 0.0 9.0
21 -1 0 0 103 101  0.000000e+00  0.000000e+00 -1.231068e+03  1.231068e+03 0.0 0.0 9.0
 2  1 1 2 103   0  2.936862e+02  1.462211e+03 -6.051075e+02  1.609493e+03 0.0022 0.0 9.0
22  1 1 2   0   0 -2.936862e+02 -1.462211e+03  4.369157e+03  4.616692e+03 0.0 0.0 9.0
#pdf 2 21 7.684796e-01 1.893950e-01 5000.0 3.096758e-03 3.966316e-01
</event>
<event>
4 7 1.0 5000.0 7.905138e-03 7.739137e-02
21 -1 0 0 103 101  0.000000e+00  0.000000e+00  3.635382e+03  3.635382e+03 0.0 0.0 9.0
 2 -1 0 0 101   0  0.000000e+00  0.000000e+00 -1.706847e+03  1.706847e+03 0.0 0.0 9.0
 2  1 1 2 103   0 -1.315677e+03  1.458512e+02  3.227009e+03  3.487960e+03 0.0022 0.0 9.0
22  1 1 2   0   0  1.315677e+03 -1.458512e+02 -1.298474e+03  1.854269e+03 0.0 0.0 9.0
#pdf 21 2 5.592895e-01 2.625918e-01 5000.0 1.205996e-03 5.703234e-02
</event>
<event>
4 7 1.0 5000.0 7.905138e-03 7.739137e-02
 2 -1 0 0 101   0  0.000000e+00  0.000000e+00  2.997431e+03  2.997431e+03 0.0 0.0 9.0
21 -1 0 0 103 101  0.000000e+00  0.000000e+00 -2.111181e+03  2.111181e+03 0.0 0.0 9.0
22  1 1 2   0   0 -2.779370e+02 -1.634953e+03 -1.477505e+03  2.221113e+03 0.0 0.0 9.0
 2  1 1 2 103   0  2.779370e+02  1.634953e+03  2.363755e+03  2.887500e+03 0.0022 0.0 9.0
#pdf 2 21 4.611432e-01 3.247972e-01 5000.0 9.445198e-02 2.196818e-01
</event>
<event>
4 7 1.0 5000.0 7.905138e-03 7.739137e-02
 2 -1 0 0 101   0  0.000000e+00  0.000000e+00  1.414228e+03  1.414228e+03 0.0 0.0 9.0
21 -1 0 0 103 101  0.000000e+00  0.000000e+00 -4.408649e+03  4.408649e+03 0.0 0.0 9.0
22  1 1 2   0   0 -2.253954e+03 -8.654955e+01 -2.745982e+03  3.553620e+03 0.0 0.0 9.0
 2  1 1 2 103   0  2.253954e+03  8.654955e+01 -2.484387e+02  2.269256e+03 0.0022 0.0 9.0
#pdf 2 21 2.175735e-01 6.782536e-01 5000.0 3.577418e-01 1.191080e-02
</event>
<event>
4 7 1.0 5000.0 7.905138e-03 7.739137e-02
 2 -1 0 0 101   0  0.000000e+00  0.000000e+00  1.885372e+03  1.885372e+03 0.0 0.0 9.0
21 -1 0 0 103 101  0.000000e+00  0.000000e+00 -3.411011e+03  3.411011e+03 0.0 0.0 9.0
22  1 1 2   0   0 -6.763637e+02  2.402991e+03 -2.967571e+02  2.513940e+03 0.0 0.0 9.0
 2  1 1 2 103   0  6.763637e+02 -2.402991e+03 -1.228882e+03  2.782442e+03 0.0022 0.0 9.0
#pdf 2 21 2.900572e-01 5.247709e-01 5000.0 2.615260e-01 5.762002e-02
</event>
<event>
4 7 1.0 5000.0 7.905138e-03 7.739137e-02
 2 -1 0 0 101   0  0.000000e+00  0.000000e+00  2.211723e+03  2.211723e+03 0.0 0.0 9.0
21 -1 0 0 103 101  0.000000e+00  0.000000e+00 -2.919301e+03  2.919301e+03 0.0 0.0 9.0
22  1 1 2   0   0  1.505217e+03  4.537346e+02 -2.369325e+03  2.843459e+03 0.0 0.0 9.0
 2  1 1 2 103   0 -1.505217e+03 -4.537346e+02  1.661748e+03  2.287566e+03 0.0022 0.0 9.0
#pdf 2 21 3.402651e-01 4.491233e-01 5000.0 2.022418e-01 1.028893e-01
</event>
<event>
4 7 1.0 5000.0 7.905138e-03 7.739137e-02
21 -1 0 0 103 101  0.000000e+00  0.000000e+00  4.059291e+03  4.059291e+03 0.0 0.0 9.0
 2 -1 0 0 101   0  0.000000e+00  0.000000e+00 -1.562942e+03  1.562942e+03 0.0 0.0 9.0
 2  1 1 2 103   0  1.244470e+03 -1.338367e+03 -6.863254e+02  1.952172e+03 0.0022 0.0 9.0
22  1 1 2   0   0 -1.244470e+03  1.338367e+03  3.182675e+03  3.670061e+03 0.0 0.0 9.0
#pdf 21 2 6.245064e-01 2.404526e-01 5000.0 4.298492e-04 7.518911e-02
</event>
<event>
4 7 1.0 5000.0 7.905138e-03 7.739137e-02
 2 -1 0 0 101   0  0.000000e+00  0.000000e+00  3.919285e+03  3.919285e+03 0.0 0.0 9.0
21 -1 0 0 103 101  0.000000e+00  0.000000e+00 -1.629042e+03  1.629042e+03 0.0 0.0 9.0
 2  1 1 2 103   0  1.694535e+03 -8.654563e+02 -6.802386e+02  2.020690e+03 0.0022 0.0 9.0
22  1 1 2   0   0 -1.694535e+03  8.654563e+02  2.970481e+03  3.527637e+03 0.0 0.0 9.0
#pdf 2 21 6.029669e-01 2.506219e-01 5000.0 2.800897e-02 3.127644e-01
</event>
<event>
4 7 1.0 5000.0 7.905138e-03 7.739137e-02
21 -1 0 0 103 101  0.000000e+00  0.000000e+00  2.168572e+03  2.168572e+03 0.0 0.0 9.0
 2 -1 0 0 101   0  0.000000e+00  0.000000e+00 -2.888823e+03  2.888823e+03 0.0 0.0 9.0
22  1 1 2   0   0  1.509912e+03 -5.123606e+02 -2.309313e+03  2.806292e+03 0.0 0.0 9.0
 2  1 1 2 103   0 -1.509912e+03  5.123606e+02  1.589062e+03  2.251104e+03 0.0022 0.0 9.0
#pdf 21 2 3.336265e-01 4.444343e-01 5000.0 2.386113e-02 5.932864e-03
</event>
<event>
4 7 1.0 5000.0 7.905138e-03 7.739137e-02
 2 -1 0 0 101   0  0.000000e+00  0.000000e+00  3.567025e+03  3.567025e+03 0.0 0.0 9.0
21 -1 0 0 103 101  0.000000e+00  0.000000e+00 -1.803565e+03  1.803565e+03 0.0 0.0 9.0
 2  1 1 2 103   0 -1.733374e+03  1.391213e+03 -4.120102e+02  2.260489e+03 0.0022 0.0 9.0
22  1 1 2   0   0  1.733374e+03 -1.391213e+03  2.175470e+03  3.110101e+03 0.0 0.0 9.0
#pdf 2 21 5.487731e-01 2.774716e-01 5000.0 4.685565e-02 2.775137e-01
</event>
<event>
4 7 1.0 5000.0 7.905138e-03 7.739137e-02
 2 -1 0 0 101   0  0.000000e+00  0.000000e+00  1.428047e+03  1.428047e+03 0.0 0.0 9.0
21 -1 0 0 103 101  0.000000e+00  0.000000e+00 -4.317536e+03  4.317536e+03 0.0 0.0 9.0
22  1 1 2   0   0 -5.807110e+02  1.965385e+03 -3.066820e+03  3.688543e+03 0.0 0.0 9.0
 2  1 1 2 103   0  5.807110e+02 -1.965385e+03  1.773315e+02  2.057039e+03 0.0022 0.0 9.0
#pdf 2 21 2.196995e-01 6.642363e-01 5000.0 3.548241e-01 1.417353e-02
</event>
<event>
4 7 1.0 5000.0 7.905138e-03 7.739137e-02
21 -1 0 0 103 101  0.000000e+00  0.000000e+00  1.791966e+03  1.791966e+03 0.0 0.0 9.0
 2 -1 0 0 101   0  0.000000e+00  0.000000e+00 -3.624987e+03  3.624987e+03 0.0 0.0 9.0
 2  1 1 2 103   0  1.425212e+03 -1.228046e+03 -2.743761e+03  3.326793e+03 0.0022 0.0 9.0
22  1 1 2   0   0 -1.425212e+03  1.228046e+03  9.107400e+02  2.090161e+03 0.0 0.0 9.0
#pdf 21 2 2.756871e-01 5.576903e-01 5000.0 4.853230e-02 1.234857e-03
</event>
<event>
4 7 1.0 5000.0 7.905138e-03 7.739137e-02
21 -1 0 0 103 101  0.000000e+00  0.000000e+00  2.099045e+03  2.099045e+03 0.0 0.0 9.0
 2 -1 0 0 101   0  0.000000e+00  0.000000e+00 -2.670055e+03  2.670055e+03 0.0 0.0 9.0
22  1 1 2   0   0 -9.904231e+02  2.134974e+03 -2.770009e+01  2.353682e+03 0.0 0.0 9.0
 2  1 1 2 103   0  9.904231e+02 -2.134974e+03 -5.433099e+02  2.415417e+03 0.0022 0.0 9.0
#pdf 21 2 3.229299e-01 4.107776e-01 5000.0 2.719961e-02 9.142812e-03
</event>
<event>
4 7 1.0 5000.0 7.905138e-03 7.739137e-02
21 -1 0 0 103 101  0.000000e+00  0.000000e+00  1.338470e+03  1.338470e+03 0.0 0.0 9.0
 2 -1 0 0 101   0  0.000000e+00  0.000000e+00 -3.938625e+03  3.938625e+03 0.0 0.0 9.0
 2  1 1 2 103   0 -4.248432e+01 -1.606270e+03  5.846571e+02  1.709892e+03 0.0022 0.0 9.0
22  1 1 2   0   0  4.248432e+01  1.606270e+03 -3.184812e+03  3.567203e+03 0.0 0.0 9.0
#pdf 21 2 2.059184e-01 6.059423e-01 5000.0 1.164355e-01 5.835669e-04
</event>
<event>
4 7 1.0 5000.0 7.905138e-03 7.739137e-02
 2 -1 0 0 101   0  0.000000e+00  0.000000e+00  2.133686e+03  2.133686e+03 0.0 0.0 9.0
21 -1 0 0 103 101  0.000000e+00  0.000000e+00 -2.802219e+03  2.802219e+03 0.0 0.0 9.0
22  1 1 2   0   0  4.553846e+02 -2.844805e+01  2.090340e+03  2.139557e+03 0.0 0.0 9.0
 2  1 1 2 103   0 -4.553846e+02  2.844805e+01 -2.758872e+03  2.796348e+03 0.0022 0.0 9.0
#pdf 2 21 3.282595e-01 4.311106e-01 5000.0 2.157074e-01 1.164613e-01
</event>
<event>
4 7 1.0 5000.0 7.905138e-03 7.739137e-02
21 -1 0 0 103 101  0.000000e+00  0.000000e+00  2.791002e+03  2.791002e+03 0.0 0.0 9.0
 2 -1 0 0 101   0  0.000000e+00  0.000000e+00 -2.278933e+03  2.278933e+03 0.0 0.0 9.0
22  1 1 2   0   0  3.033236e+01 -1.949744e+03 -1.351589e+03  2.372596e+03 0.0 0.0 9.0
 2  1 1 2 103   0 -3.033236e+01  1.949744e+03  1.863657e+03  2.697339e+03 0.0022 0.0 9.0
#pdf 21 2 4.293849e-01 3.506051e-01 5000.0 7.207597e-03 1.937460e-02
</event>
<event>
4 7 1.0 5000.0 7.905138e-03 7.739137e-02
 2 -1 0 0 101   0  0.000000e+00  0.000000e+00  1.760624e+03  1.760624e+03 0.0 0.0 9.0
21 -1 0 0 103 101  0.000000e+00  0.000000e+00 -2.842070e+03  2.842070e+03 0.0 0.0 9.0
22  1 1 2   0   0 -2.000750e+03  1.228920e+02  4.807036e+02  2.061353e+03 0.0 0.0 9.0
 2  1 1 2 103   0  2.000750e+03 -1.228920e+02 -1.562149e+03  2.541340e+03 0.0022 0.0 9.0
#pdf 2 21 2.708652e-01 4.372415e-01 5000.0 2.860607e-01 1.117276e-01
</event>
<event>
4 7 1.0 5000.0 7.905138e-03 7.739137e-02
21 -1 0 0 103 101  0.000000e+00  0.000000e+00  2.543829e+03  2.543829e+03 0.0 0.0 9.0
 2 -1 0 0 101   0  0.000000e+00  0.000000e+00 -2.442221e+03  2.442221e+03 0.0 0.0 9.0
22  1 1 2   0   0 -3.849084e+02 -1.873992e+02  2.506781e+03  2.543074e+03 0.0 0.0 9.0
 2  1 1 2 103   0  3.849084e+02  1.873992e+02 -2.405174e+03  2.442976e+03 0.0022 0.0 9.0
#pdf 21 2 3.913582e-01 3.757264e-01 5000.0 1.168206e-02 1.420733e-02
</event>
<event>
4 7 1.0 5000.0 7.905138e-03 7.739137e-02
 2 -1 0 0 101   0  0.000000e+00  0.000000e+00  1.885170e+03  1.885170e+03 0.0 0.0 9.0
21 -1 0 0 103 101  0.000000e+00  0.000000e+00 -3.241146e+03  3.241146e+03 0.0 0.0 9.0
22  1 1 2   0   0 -1.312624e+03  1.801568e+03 -1.785848e+03  2.856201e+03 0.0 0.0 9.0
 2  1 1 2 103   0  1.312624e+03 -1.801568e+03  4.298715e+02  2.270115e+03 0.0022 0.0 9.0
#pdf 2 21 2.900261e-01 4.986378e-01 5000.0 2.615651e-01 7.121419e-02
</event>
<event>
4 7 1.0 5000.0 7.905138e-03 7.739137e-02
21 -1 0 0 103 101  0.000000e+00  0.000000e+00  2.277462e+03  2.277462e+03 0.0 0.0 9.0
 2 -1 0 0 101   0  0.000000e+00  0.000000e+00 -2.767307e+03  2.767307e+03 0.0 0.0 9.0
22  1 1 2   0   0 -1.390969e+02 -2.134987e+03  1.074674e+03  2.394252e+03 0.0 0.0 9.0
 2  1 1 2 103   0  1.390969e+02  2.134987e+03 -1.564519e+03  2.650517e+03 0.0022 0.0 9.0
#pdf 21 2 3.503787e-01 4.257395e-01 5000.0 1.942881e-02 7.553991e-03
</event>
<event>
4 7 1.0 5000.0 7.905138e-03 7.739137e-02
 2 -1 0 0 101   0  0.000000e+00  0.000000e+00  2.133333e+03  2.133333e+03 0.0 0.0 9.0
21 -1 0 0 103 101  0.000000e+00  0.000000e+00 -2.937677e+03  2.937677e+03 0.0 0.0 9.0
22  1 1 2   0   0 -1.518234e+01 -2.462963e+03  5.148498e+01  2.463548e+03 0.0 0.0 9.0
 2  1 1 2 103   0  1.518234e+01  2.462963e+03 -8.558289e+02  2.607463e+03 0.0022 0.0 9.0
#pdf 2 21 3.282051e-01 4.519503e-01 5000.0 2.157694e-01 1.008687e-01
</event>
<event>
4 7 1.0 5000.0 7.905138e-03 7.739137e-02
21 -1 0 0 103 101  0.000000e+00  0.000000e+00  2.328349e+03  2.328349e+03 0.0 0.0 9.0
 2 -1 0 0 101   0  0.000000e+00  0.000000e+00 -2.671491e+03  2.671491e+03 0.0 0.0 9.0
 2  1 1 2 103   0  1.087707e+03  3.678007e+02  2.047658e+03  2.347613e+03 0.0022 0.0 9.0
22  1 1 2   0   0 -1.087707e+03 -3.678007e+02 -2.390800e+03  2.652227e+03 0.0 0.0 9.0
#pdf 21 2 3.582075e-01 4.109986e-01 5000.0 1.763158e-02 9.117135e-03
</event>
<event>
4 7 1.0 5000.0 7.905138e-03 7.739137e-02
21 -1 0 0 103 101  0.000000e+00  0.000000e+00  1.953437e+03  1.953437e+03 0.0 0.0 9.0
 2 -1 0 0 101   0  0.000000e+00  0.000000e+00 -3.198465e+03  3.198465e+03 0.0 0.0 9.0
 2  1 1 2 103   0 -1.843041e+03  1.158143e+03 -1.888831e+03  2.881974e+03 0.0022 0.0 9.0
22  1 1 2   0   0  1.843041e+03 -1.158143e+03  6.438027e+02  2.269929e+03 0.0 0.0 9.0
#pdf 21 2 3.005288e-01 4.920716e-01 5000.0 3.577840e-02 3.142589e-03
</event>
<event>
4 7 1.0 5000.0 7.905138e-03 7.739137e-02
 2 -1 0 0 101   0  0.000000e+00  0.000000e+00  2.158182e+03  2.158182e+03 0.0 0.0 9.0
21 -1 0 0 103 101  0.000000e+00  0.000000e+00 -2.937268e+03  2.937268e+03 0.0 0.0 9.0
 2  1 1 2 103   0 -8.029786e+02  1.222711e+03 -2.463159e+03  2.864777e+03 0.0022 0.0 9.0
22  1 1 2   0   0  8.029786e+02 -1.222711e+03  1.684073e+03  2.230672e+03 0.0 0.0 9.0
#pdf 2 21 3.320279e-01 4.518874e-01 5000.0 2.114265e-01 1.009135e-01
</event>
<event>
4 7 1.0 5000.0 7.905138e-03 7.739137e-02
21 -1 0 0 103 101  0.000000e+00  0.000000e+00  3.989641e+03  3.989641e+03 0.0 0.0 9.0
 2 -1 0 0 101   0  0.000000e+00  0.000000e+00 -1.268872e+03  1.268872e+03 0.0 0.0 9.0
22  1 1 2   0   0  1.506018e+03  4.846714e+02  3.229869e+03  3.596533e+03 0.0 0.0 9.0
 2  1 1 2 103   0 -1.506018e+03 -4.846714e+02 -5.090997e+02  1.661980e+03 0.0022 0.0 9.0
#pdf 21 2 6.137909e-01 1.952110e-01 5000.0 5.133100e-04 1.338927e-01
</event>
<event>
4 7 1.0 5000.0 7.905138e-03 7.739137e-02
 2 -1 0 0 101   0  0.000000e+00  0.000000e+00  3.387904e+03  3.387904e+03 0.0 0.0 9.0
21 -1 0 0 103 101  0.000000e+00  0.000000e+00 -1.831583e+03  1.831583e+03 0.0 0.0 9.0
22  1 1 2   0   0 -1.926198e+03  1.409835e+03  1.524392e+03  2.832251e+03 0.0 0.0 9.0
 2  1 1 2 103   0  1.926198e+03 -1.409835e+03  3.192888e+01  2.387236e+03 0.0022 0.0 9.0
#pdf 2 21 5.212159e-01 2.817820e-01 5000.0 5.934791e-02 2.720005e-01
</event>
<event>
4 7 1.0 5000.0 7.905138e-03 7.739137e-02
21 -1 0 0 103 101  0.000000e+00  0.000000e+00  5.413908e+03  5.413908e+03 0.0 0.0 9.0
 2 -1 0 0 101   0  0.000000e+00  0.000000e+00 -1.068866e+03  1.068866e+03 0.0 0.0 9.0
 2  1 1 2 103   0  9.055103e+01  2.353391e+03  1.512276e+03  2.798862e+03 0.0022 0.0 9.0
22  1 1 2   0   0 -9.055103e+01 -2.353391e+03  2.832765e+03  3.683912e+03 0.0 0.0 9.0
#pdf 21 2 8.329089e-01 1.644409e-01 5000.0 3.746683e-06 2.027070e-01
</event>
<event>
4 7 1.0 5000.0 7.905138e-03 7.739137e-02
21 -1 0 0 103 101  0.000000e+00  0.000000e+00  1.887228e+03  1.887228e+03 0.0 0.0 9.0
 2 -1 0 0 101   0  0.000000e+00  0.000000e+00 -3.268390e+03  3.268390e+03 0.0 0.0 9.0
 2  1 1 2 103   0  1.604574e+03 -1.872681e+03 -3.851299e+02  2.495981e+03 0.0022 0.0 9.0
22  1 1 2   0   0 -1.604574e+03  1.872681e+03 -9.960322e+02  2.659638e+03 0.0 0.0 9.0
#pdf 21 2 2.903428e-01 5.028293e-01 5000.0 4.057051e-02 2.710010e-03
</event>
<event>
4 7 1.0 5000.0 7.905138e-03 7.739137e-02
21 -1 0 0 103 101  0.000000e+00  0.000000e+00  2.099263e+03  2.099263e+03 0.0 0.0 9.0
 2 -1 0 0 101   0  0.000000e+00  0.000000e+00 -2.898250e+03  2.898250e+03 0.0 0.0 9.0
22  1 1 2   0   0 -7.975275e+01 -2.307198e+03 -1.279528e+03  2.639454e+03 0.0 0.0 9.0
 2  1 1 2 103   0  7.975275e+01  2.307198e+03  4.805410e+02  2.358059e+03 0.0022 0.0 9.0
#pdf 21 2 3.229636e-01 4.458846e-01 5000.0 2.718842e-02 5.818347e-03
</event>
<event>
4 7 1.0 5000.0 7.905138e-03 7.739137e-02
 2 -1 0 0 101   0  0.000000e+00  0.000000e+00  1.813412e+03  1.813412e+03 0.0 0.0 9.0
21 -1 0 0 103 101  0.000000e+00  0.000000e+00 -3.448111e+03  3.448111e+03 0.0 0.0 9.0
22  1 1 2   0   0 -6.984766e+02 -5.561045e+02 -3.274709e+03  3.394237e+03 0.0 0.0 9.0
 2  1 1 2 103   0  6.984766e+02  5.561045e+02  1.640011e+03  1.867286e+03 0.0022 0.0 9.0
#pdf 2 21 2.789865e-01 5.304786e-01 5000.0 2.755699e-01 5.491906e-02
</event>
<event>
4 7 1.0 5000.0 7.905138e-03 7.739137e-02
 2 -1 0 0 101   0  0.000000e+00  0.000000e+00  2.275721e+03  2.275721e+03 0.0 0.0 9.0
21 -1 0 0 103 101  0.000000e+00  0.000000e+00 -2.537096e+03  2.537096e+03 0.0 0.0 9.0
22  1 1 2   0   0  1.342313e+03 -1.615786e+03 -1.299097e+03  2.469862e+03 0.0 0.0 9.0
 2  1 1 2 103   0 -1.342313e+03  1.615786e+03  1.037723e+03  2.342955e+03 0.0022 0.0 9.0
#pdf 2 21 3.501110e-01 3.903224e-01 5000.0 1.915497e-01 1.513973e-01
</event>
<event>
4 7 1.0 5000.0 7.905138e-03 7.739137e-02
 2 -1 0 0 101   0  0.000000e+00  0.000000e+00  1.776949e+03  1.776949e+03 0.0 0.0 9.0
21 -1 0 0 103 101  0.000000e+00  0.000000e+00 -3.303733e+03  3.303733e+03 0.0 0.0 9.0
22  1 1 2   0   0  1.191074e+03  7.829730e+02  1.290858e+03  1.923023e+03 0.0 0.0 9.0
 2  1 1 2 103   0 -1.191074e+03 -7.829730e+02 -2.817642e+03  3.157659e+03 0.0022 0.0 9.0
#pdf 2 21 2.733768e-01 5.082666e-01 5000.0 2.827988e-01 6.596562e-02
</event>
<event>
4 7 1.0 5000.0 7.905138e-03 7.739137e-02
21 -1 0 0 103 101  0.000000e+00  0.000000e+00  1.979769e+03  1.979769e+03 0.0 0.0 9.0
 2 -1 0 0 101   0  0.000000e+00  0.000000e+00 -3.193037e+03  3.193037e+03 0.0 0.0 9.0
 2  1 1 2 103   0 -1.212564e+03 -6.350629e+02  1.562880e+03  2.077549e+03 0.0022 0.0 9.0
22  1 1 2   0   0  1.212564e+03  6.350629e+02 -2.776148e+03  3.095257e+03 0.0 0.0 9.0
#pdf 21 2 3.045798e-01 4.912365e-01 5000.0 3.408527e-02 3.178532e-03
</event>
<event>
4 7 1.0 5000.0 7.905138e-03 7.739137e-02
21 -1 0 0 103 101  0.000000e+00  0.000000e+00  3.366573e+03  3.366573e+03 0.0 0.0 9.0
 2 -1 0 0 101   0  0.000000e+00  0.000000e+00 -1.841470e+03  1.841470e+03 0.0 0.0 9.0
 2  1 1 2 103   0 -1.656207e+03  9.014123e+02  2.463099e+03  3.102003e+03 0.0022 0.0 9.0
22  1 1 2   0   0  1.656207e+03 -9.014123e+02 -9.379963e+02  2.106040e+03 0.0 0.0 9.0
#pdf 21 2 5.179343e-01 2.833031e-01 5000.0 2.194911e-03 4.419042e-02
</event>
<event>
4 7 1.0 5000.0 7.905138e-03 7.739137e-02
 2 -1 0 0 101   0  0.000000e+00  0.000000e+00  2.387369e+03  2.387369e+03 0.0 0.0 9.0
21 -1 0 0 103 101  0.000000e+00  0.000000e+00 -2.618803e+03  2.618803e+03 0.0 0.0 9.0
 2  1 1 2 103   0  1.785769e+03 -1.558059e+03  6.823360e+02  2.466192e+03 0.0022 0.0 9.0
22  1 1 2   0   0 -1.785769e+03  1.558059e+03 -9.137698e+02  2.539979e+03 0.0 0.0 9.0
#pdf 2 21 3.672875e-01 4.028927e-01 5000.0 1.736957e-01 1.400014e-01
</event>
<event>
4 7 1.0 5000.0 7.905138e-03 7.739137e-02
 2 -1 0 0 101   0  0.000000e+00  0.000000e+00  2.187048e+03  2.187048e+03 0.0 0.0 9.0
21 -1 0 0 103 101  0.000000e+00  0.000000e+00 -2.857402e+03  2.857402e+03 0.0 0.0 9.0
 2  1 1 2 103   0 -4.922582e+02  2.355454e+03 -1.018583e+03  2.613043e+03 0.0022 0.0 9.0
22  1 1 2   0   0  4.922582e+02 -2.355454e+03  3.482283e+02  2.431408e+03 0.0 0.0 9.0
#pdf 2 21 3.364689e-01 4.396004e-01 5000.0 2.064468e-01 1.099374e-01
</event>
<event>
4 7 1.0 5000.0 7.905138e-03 7.739137e-02
21 -1 0 0 103 101  0.000000e+00  0.000000e+00  3.128541e+03  3.128541e+03 0.0 0.0 9.0
 2 -1 0 0 101   0  0.000000e+00  0.000000e+00 -2.001066e+03  2.001066e+03 0.0 0.0 9.0
 2  1 1 2 103   0  4.579343e+02  2.407923e+03  1.078949e+03  2.678046e+03 0.0022 0.0 9.0
22  1 1 2   0   0 -4.579343e+02 -2.407923e+03  4.852584e+01  2.451561e+03 0.0 0.0 9.0
#pdf 21 2 4.813140e-01 3.078563e-01 5000.0 3.636943e-03 3.274942e-02
</event>
<event>
4 7 1.0 5000.0 7.905138e-03 7.739137e-02
 2 -1 0 0 101   0  0.000000e+00  0.000000e+00  2.361079e+03  2.361079e+03 0.0 0.0 9.0
21 -1 0 0 103 101  0.000000e+00  0.000000e+00 -2.578287e+03  2.578287e+03 0.0 0.0 9.0
22  1 1 2   0   0 -2.401837e+03  5.529484e+02 -2.225853e+02  2.474695e+03 0.0 0.0 9.0
 2  1 1 2 103   0  2.401837e+03 -5.529484e+02  5.378301e+00  2.464671e+03 0.0022 0.0 9.0
#pdf 2 21 3.632430e-01 3.966595e-01 5000.0 1.778103e-01 1.455862e-01
</event>
<event>
4 7 1.0 5000.0 7.905138e-03 7.739137e-02
 2 -1 0 0 101   0  0.000000e+00  0.000000e+00  1.655733e+03  1.655733e+03 0.0 0.0 9.0
21 -1 0 0 103 101  0.000000e+00  0.000000e+00 -3.743492e+03  3.743492e+03 0.0 0.0 9.0
 2  1 1 2 103   0 -1.704194e+02 -8.242166e+02 -3.584548e+03  3.682032e+03 0.0022 0.0 9.0
22  1 1 2   0   0  1.704194e+02  8.242166e+02  1.496788e+03  1.717193e+03 0.0 0.0 9.0
#pdf 2 21 2.547281e-01 5.759219e-01 5000.0 3.072802e-01 3.652894e-02
</event>
<event>
4 7 1.0 5000.0 7.905138e-03 7.739137e-02
21 -1 0 0 103 101  0.000000e+00  0.000000e+00  3.207920e+03  3.207920e+03 0.0 0.0 9.0
 2 -1 0 0 101   0  0.000000e+00  0.000000e+00 -1.924682e+03  1.924682e+03 0.0 0.0 9.0
22  1 1 2   0   0 -1.672475e+02 -1.694615e+03  2.510541e+03  3.033563e+03 0.0 0.0 9.0
 2  1 1 2 103   0  1.672475e+02  1.694615e+03 -1.227303e+03  2.099039e+03 0.0022 0.0 9.0
#pdf 21 2 4.935261e-01 2.961050e-01 5000.0 3.080856e-03 3.781431e-02
</event>
<event>
4 7 1.0 5000.0 7.905138e-03 7.739137e-02
 2 -1 0 0 101   0  0.000000e+00  0.000000e+00  2.332851e+03  2.332851e+03 0.0 0.0 9.0
21 -1 0 0 103 101  0.000000e+00  0.000000e+00 -2.781453e+03  2.781453e+03 0.0 0.0 9.0
 2  1 1 2 103   0 -8.119390e+02  3.230630e+02 -2.626277e+03  2.767841e+03 0.0022 0.0 9.0
22  1 1 2   0   0  8.119390e+02 -3.230630e+02  2.177676e+03  2.346463e+03 0.0 0.0 9.0
#pdf 2 21 3.589002e-01 4.279158e-01 5000.0 1.822886e-01 1.189805e-01
</event>
<event>
4 7 1.0 5000.0 7.905138e-03 7.739137e-02
21 -1 0 0 103 101  0.000000e+00  0.000000e+00  3.339567e+03  3.339567e+03 0.0 0.0 9.0
 2 -1 0 0 101   0  0.000000e+00  0.000000e+00 -1.878991e+03  1.878991e+03 0.0 0.0 9.0
22  1 1 2   0   0 -1.206077e+03 -7.237007e+01 -1.555407e+03  1.969556e+03 0.0 0.0 9.0
 2  1 1 2 103   0  1.206077e+03  7.237007e+01  3.015984e+03  3.249002e+03 0.0022 0.0 9.0
#pdf 21 2 5.137796e-01 2.890755e-01 5000.0 2.327330e-03 4.119762e-02
</event>
<event>
4 7 1.0 5000.0 7.905138e-03 7.739137e-02
21 -1 0 0 103 101  0.000000e+00  0.000000e+00  2.331611e+03  2.331611e+03 0.0 0.0 9.0
 2 -1 0 0 101   0  0.000000e+00  0.000000e+00 -2.604541e+03  2.604541e+03 0.0 0.0 9.0
 2  1 1 2 103   0  1.137366e+03  3.585526e+01  2.052723e+03  2.347032e+03 0.0022 0.0 9.0
22  1 1 2   0   0 -1.137366e+03 -3.585526e+01 -2.325652e+03  2.589120e+03 0.0 0.0 9.0
#pdf 21 2 3.587094e-01 4.006986e-01 5000.0 1.752334e-02 1.038808e-02
</event>
<event>
4 7 1.0 5000.0 7.905138e-03 7.739137e-02
21 -1 0 0 103 101  0.000000e+00  0.000000e+00  2.774662e+03  2.774662e+03 0.0 0.0 9.0
 2 -1 0 0 101   0  0.000000e+00  0.000000e+00 -2.279544e+03  2.279544e+03 0.0 0.0 9.0
22  1 1 2   0   0 -1.647894e+03  1.203885e+03  1.724380e+03  2.671775e+03 0.0 0.0 9.0
 2  1 1 2 103   0  1.647894e+03 -1.203885e+03 -1.229261e+03  2.382431e+03 0.0022 0.0 9.0
#pdf 21 2 4.268711e-01 3.506990e-01 5000.0 7.444537e-03 1.935215e-02
</event>
<event>
4 7 1.0 5000.0 7.905138e-03 7.739137e-02
 2 -1 0 0 101   0  0.000000e+00  0.000000e+00  1.279561e+03  1.279561e+03 0.0 0.0 9.0
21 -1 0 0 103 101  0.000000e+00  0.000000e+00 -4.966693e+03  4.966693e+03 0.0 0.0 9.0
22  1 1 2   0   0  1.497041e+03  7.218709e+01  6.676571e+02  1.640765e+03 0.0 0.0 9.0
 2  1 1 2 103   0 -1.497041e+03 -7.218709e+01 -4.354789e+03  4.605489e+03 0.0022 0.0 9.0
#pdf 2 21 1.968556e-01 7.641065e-01 5000.0 3.863813e-01 3.343443e-03
</event>
<event>
4 7 1.0 5000.0 7.905138e-03 7.739137e-02
21 -1 0 0 103 101  0.000000e+00  0.000000e+00  5.149959e+03  5.149959e+03 0.0 0.0 9.0
 2 -1 0 0 101   0  0.000000e+00  0.000000e+00 -1.207514e+03  1.207514e+03 0.0 0.0 9.0
22  1 1 2   0   0 -1.178368e+03  8.917105e+02  4.531727e+03  4.766576e+03 0.0 0.0 9.0
 2  1 1 2 103   0  1.178368e+03 -8.917105e+02 -5.892826e+02  1.590897e+03 0.0022 0.0 9.0
#pdf 21 2 7.923013e-01 1.857715e-01 5000.0 1.265280e-05 1.518896e-01
</event>
<event>
4 7 1.0 5000.0 7.905138e-03 7.739137e-02
 2 -1 0 0 101   0  0.000000e+00  0.000000e+00  2.829773e+03  2.829773e+03 0.0 0.0 9.0
21 -1 0 0 103 101  0.000000e+00  0.000000e+00 -2.195754e+03  2.195754e+03 0.0 0.0 9.0
22  1 1 2   0   0  8.742226e+02 -1.893461e+03 -1.059280e+03  2.339131e+03 0.0 0.0 9.0
 2  1 1 2 103   0 -8.742226e+02  1.893461e+03  1.693300e+03  2.686396e+03 0.0022 0.0 9.0
#pdf 2 21 4.353498e-01 3.378083e-01 5000.0 1.131752e-01 2.049583e-01
</event>
<event>
4 7 1.0 5000.0 7.905138e-03 7.739137e-02
21 -1 0 0 103 101  0.000000e+00  0.000000e+00  3.043778e+03  3.043778e+03 0.0 0.0 9.0
 2 -1 0 0 101   0  0.000000e+00  0.000000e+00 -2.048483e+03  2.048483e+03 0.0 0.0 9.0
 2  1 1 2 103   0 -6.727403e+01  1.766636e+03  2.295732e+03  2.897570e+03 0.0022 0.0 9.0
22  1 1 2   0   0  6.727403e+01 -1.766636e+03 -1.300437e+03  2.194690e+03 0.0 0.0 9.0
#pdf 21 2 4.682735e-01 3.151512e-01 5000.0 4.333236e-03 2.992539e-02
</event>
<event>
4 7 1.0 5000.0 7.905138e-03 7.739137e-02
 2 -1 0 0 101   0  0.000000e+00  0.000000e+00  3.114487e+03  3.114487e+03 0.0 0.0 9.0
21 -1 0 0 103 101  0.000000e+00  0.000000e+00 -2.016209e+03  2.016209e+03 0.0 0.0 9.0
 2  1 1 2 103   0 -1.953704e+03 -1.492360e+03  5.248820e+01  2.459035e+03 0.0022 0.0 9.0
22  1 1 2   0   0  1.953704e+03  1.492360e+03  1.045789e+03  2.671661e+03 0.0 0.0 9.0
#pdf 2 21 4.791518e-01 3.101861e-01 5000.0 8.272373e-02 2.368414e-01
</event>
<event>
4 7 1.0 5000.0 7.905138e-03 7.739137e-02
21 -1 0 0 103 101  0.000000e+00  0.000000e+00  1.724896e+03  1.724896e+03 0.0 0.0 9.0
 2 -1 0 0 101   0  0.000000e+00  0.000000e+00 -3.562267e+03  3.562267e+03 0.0 0.0 9.0
 2  1 1 2 103   0  8.130126e+02  8.754455e+02  1.397577e+03  1.838645e+03 0.0022 0.0 9.0
22  1 1 2   0   0 -8.130126e+02 -8.754455e+02 -3.234947e+03  3.448518e+03 0.0 0.0 9.0
#pdf 21 2 2.653687e-01 5.480410e-01 5000.0 5.510355e-02 1.422803e-03
</event>
<event>
4 7 1.0 5000.0 7.905138e-03 7.739137e-02
21 -1 0 0 103 101  0.000000e+00  0.000000e+00  3.610739e+03  3.610739e+03 0.0 0.0 9.0
 2 -1 0 0 101   0  0.000000e+00  0.000000e+00 -1.641695e+03  1.641695e+03 0.0 0.0 9.0
 2  1 1 2 103   0  2.363172e+03  5.697925e+01  3.556439e+02  2.390462e+03 0.0022 0.0 9.0
22  1 1 2   0   0 -2.363172e+03 -5.697925e+01  1.613400e+03  2.861972e+03 0.0 0.0 9.0
#pdf 21 2 5.554983e-01 2.525685e-01 5000.0 1.275040e-03 6.464930e-02
</event>
<event>
4 7 1.0 5000.0 7.905138e-03 7.739137e-02
21 -1 0 0 103 101  0.000000e+00  0.000000e+00  2.094719e+03  2.094719e+03 0.0 0.0 9.0
 2 -1 0 0 101   0  0.000000e+00  0.000000e+00 -3.053333e+03  3.053333e+03 0.0 0.0 9.0
22  1 1 2   0   0 -6.532121e+02  1.259369e+03 -2.610180e+03  2.970814e+03 0.0 0.0 9.0
 2  1 1 2 103   0  6.532121e+02 -1.259369e+03  1.651566e+03  2.177238e+03 0.0022 0.0 9.0
#pdf 21 2 3.222645e-01 4.697436e-01 5000.0 2.742196e-02 4.249284e-03
</event>
<event>
4 7 1.0 5000.0 7.905138e-03 7.739137e-02
21 -1 0 0 103 101  0.000000e+00  0.000000e+00  2.724725e+03  2.724725e+03 0.0 0.0 9.0
 2 -1 0 0 101   0  0.000000e+00  0.000000e+00 -2.314946e+03  2.314946e+03 0.0 0.0 9.0
22  1 1 2   0   0  1.626951e+03  5.469653e+02  2.044406e+03  2.669408e+03 0.0 0.0 9.0
 2  1 1 2 103   0 -1.626951e+03 -5.469653e+02 -1.634627e+03  2.370263e+03 0.0022 0.0 9.0
#pdf 21 2 4.191885e-01 3.561455e-01 5000.0 8.214858e-03 1.808533e-02
</event>
<event>
4 7 1.0 5000.0 7.905138e-03 7.739137e-02
 2 -1 0 0 101   0  0.000000e+00  0.000000e+00  3.825127e+03  3.825127e+03 0.0 0.0 9.0
21 -1 0 0 103 101  0.000000e+00  0.000000e+00 -1.609740e+03  1.609740e+03 0.0 0.0 9.0
22  1 1 2   0   0 -7.978167e+02 -1.001981e+03  3.435154e+03  3.666164e+03 0.0 0.0 9.0
 2  1 1 2 103   0  7.978167e+02  1.001981e+03 -1.219767e+03  1.768703e+03 0.0022 0.0 9.0
#pdf 2 21 5.884811e-01 2.476523e-01 5000.0 3.236364e-02 3.167682e-01
</event>
<event>
4 7 1.0 5000.0 7.905138e-03 7.739137e-02
21 -1 0 0 103 101  0.000000e+00  0.000000e+00  1.938220e+03  1.938220e+03 0.0 0.0 9.0
 2 -1 0 0 101   0  0.000000e+00  0.000000e+00 -2.890290e+03  2.890290e+03 0.0 0.0 9.0
 2  1 1 2 103   0  1.928958e+03  6.058898e+02 -1.731138e+03  2.661732e+03 0.0022 0.0 9.0
22  1 1 2   0   0 -1.928958e+03 -6.058898e+02  7.790672e+02  2.166778e+03 0.0 0.0 9.0
#pdf 21 2 2.981877e-01 4.446600e-01 5000.0 3.684559e-02 5.914872e-03
</event>
<event>
4 7 1.0 5000.0 7.905138e-03 7.739137e-02
 2 -1 0 0 101   0  0.000000e+00  0.000000e+00  3.445932e+03  3.445932e+03 0.0 0.0 9.0
21 -1 0 0 103 101  0.000000e+00  0.000000e+00 -1.797901e+03  1.797901e+03 0.0 0.0 9.0
 2  1 1 2 103   0  1.173174e+03 -1.730843e+03 -5.983469e+02  2.174896e+03 0.0022 0.0 9.0
22  1 1 2   0   0 -1.173174e+03  1.730843e+03  2.246378e+03  3.068936e+03 0.0 0.0 9.0
#pdf 2 21 5.301433e-01 2.766001e-01 5000.0 5.507535e-02 2.786349e-01
</event>
<event>
4 7 1.0 5000.0 7.905138e-03 7.739137e-02
 2 -1 0 0 101   0  0.000000e+00  0.000000e+00  2.654424e+03  2.654424e+03 0.0 0.0 9.0
21 -1 0 0 103 101  0.000000e+00  0.000000e+00 -2.323851e+03  2.323851e+03 0.0 0.0 9.0
22  1 1 2   0   0 -1.033976e+03  2.256556e+03  2.511116e+02  2.494836e+03 0.0 0.0 9.0
 2  1 1 2 103   0  1.033976e+03 -2.256556e+03  7.946200e+01  2.483438e+03 0.0022 0.0 9.0
#pdf 2 21 4.083729e-01 3.575155e-01 5000.0 1.352078e-01 1.837300e-01
</event>
<event>
4 7 1.0 5000.0 7.905138e-03 7.739137e-02
21 -1 0 0 103 101  0.000000e+00  0.000000e+00  3.298118e+03  3.298118e+03 0.0 0.0 9.0
 2 -1 0 0 101   0  0.000000e+00  0.000000e+00 -1.855191e+03  1.855191e+03 0.0 0.0 9.0
 2  1 1 2 103   0  6.518595e+02 -1.720950e+03  2.443225e+03  3.058748e+03 0.0022 0.0 9.0
22  1 1 2   0   0 -6.518595e+02  1.720950e+03 -1.000298e+03  2.094561e+03 0.0 0.0 9.0
#pdf 21 2 5.074028e-01 2.854139e-01 5000.0 2.543585e-03 4.306689e-02
</event>
<event>
4 7 1.0 5000.0 7.905138e-03 7.739137e-02
 2 -1 0 0 101   0  0.000000e+00  0.000000e+00  1.763610e+03  1.763610e+03 0.0 0.0 9.0
21 -1 0 0 103 101  0.000000e+00  0.000000e+00 -3.553959e+03  3.553959e+03 0.0 0.0 9.0
 2  1 1 2 103   0 -1.123908e+03  1.438587e+03 -2.714610e+03  3.271362e+03 0.0022 0.0 9.0
22  1 1 2   0   0  1.123908e+03 -1.438587e+03  9.242618e+02  2.046207e+03 0.0 0.0 9.0
#pdf 2 21 2.713246e-01 5.467629e-01 5000.0 2.854630e-01 4.770073e-02
</event>
<event>
4 7 1.0 5000.0 7.905138e-03 7.739137e-02
 2 -1 0 0 101   0  0.000000e+00  0.000000e+00  3.728245e+03  3.728245e+03 0.0 0.0 9.0
21 -1 0 0 103 101  0.000000e+00  0.000000e+00 -1.587520e+03  1.587520e+03 0.0 0.0 9.0
22  1 1 2   0   0 -1.589726e+03 -1.182808e+03  2.612461e+03  3.278905e+03 0.0 0.0 9.0
 2  1 1 2 103   0  1.589726e+03  1.182808e+03 -4.717358e+02  2.036860e+03 0.0022 0.0 9.0
#pdf 2 21 5.735762e-01 2.442339e-01 5000.0 3.734864e-02 3.213721e-01
</event>
<event>
4 7 1.0 5000.0 7.905138e-03 7.739137e-02
 2 -1 0 0 101   0  0.000000e+00  0.000000e+00  2.377680e+03  2.377680e+03 0.0 0.0 9.0
21 -1 0 0 103 101  0.000000e+00  0.000000e+00 -2.676462e+03  2.676462e+03 0.0 0.0 9.0
 2  1 1 2 103   0  2.330988e+03 -2.370989e+02 -1.085937e+03  2.582436e+03 0.0022 0.0 9.0
22  1 1 2   0   0 -2.330988e+03  2.370989e+02  7.871549e+02  2.471706e+03 0.0 0.0 9.0
#pdf 2 21 3.657970e-01 4.117634e-01 5000.0 1.752059e-01 1.322973e-01
</event>
<event>
4 7 1.0 5000.0 7.905138e-03 7.739137e-02
21 -1 0 0 103 101  0.000000e+00  0.000000e+00  3.040557e+03  3.040557e+03 0.0 0.0 9.0
 2 -1 0 0 101   0  0.000000e+00  0.000000e+00 -2.090453e+03  2.090453e+03 0.0 0.0 9.0
22  1 1 2   0   0  2.480213e+03  1.244500e+02  3.242948e+01  2.483545e+03 0.0 0.0 9.0
 2  1 1 2 103   0 -2.480213e+03 -1.244500e+02  9.176745e+02  2.647465e+03 0.0022 0.0 9.0
#pdf 21 2 4.677780e-01 3.216081e-01 5000.0 4.361865e-03 2.764313e-02
</event>
<event>
4 7 1.0 5000.0 7.905138e-03 7.739137e-02
21 -1 0 0 103 101  0.000000e+00  0.000000e+00  1.627399e+03  1.627399e+03 0.0 0.0 9.0
 2 -1 0 0 101   0  0.000000e+00  0.000000e+00 -3.646070e+03  3.646070e+03 0.0 0.0 9.0
22  1 1 2   0   0 -1.590561e+02  2.267599e+03 -1.956899e+03  2.999459e+03 0.0 0.0 9.0
 2  1 1 2 103   0  1.590561e+02 -2.267599e+03 -6.177216e+01  2.274009e+03 0.0022 0.0 9.0
#pdf 21 2 2.503691e-01 5.609338e-01 5000.0 6.643400e-02 1.176756e-03
</event>
<event>
4 7 1.0 5000.0 7.905138e-03 7.739137e-02
 2 -1 0 0 101   0  0.000000e+00  0.000000e+00  1.822498e+03  1.822498e+03 0.0 0.0 9.0
21 -1 0 0 103 101  0.000000e+00  0.000000e+00 -2.802859e+03  2.802859e+03 0.0 0.0 9.0
 2  1 1 2 103   0  1.036388e+03 -1.785667e+03 -1.431067e+03  2.512103e+03 0.0022 0.0 9.0
22  1 1 2   0   0 -1.036388e+03  1.785667e+03  4.507056e+02  2.113254e+03 0.0 0.0 9.0
#pdf 2 21 2.803843e-01 4.312091e-01 5000.0 2.737822e-01 1.163842e-01
</event>
<event>
4 7 1.0 5000.0 7.905138e-03 7.739137e-02
 2 -1 0 0 101   0  0.000000e+00  0.000000e+00  2.629773e+03  2.629773e+03 0.0 0.0 9.0
21 -1 0 0 103 101  0.000000e+00  0.000000e+00 -2.378942e+03  2.378942e+03 0.0 0.0 9.0
22  1 1 2   0   0  1.918570e+02  5.094203e+02  2.569744e+03  2.626766e+03 0.0 0.0 9.0
 2  1 1 2 103   0 -1.918570e+02 -5.094203e+02 -2.318914e+03  2.381948e+03 0.0022 0.0 9.0
#pdf 2 21 4.045804e-01 3.659911e-01 5000.0 1.385131e-01 1.750087e-01
</event>
<event>
4 7 1.0 5000.0 7.905138e-03 7.739137e-02
 2 -1 0 0 101   0  0.000000e+00  0.000000e+00  1.492229e+03  1.492229e+03 0.0 0.0 9.0
21 -1 0 0 103 101  0.000000e+00  0.000000e+00 -4.172033e+03  4.172033e+03 0.0 0.0 9.0
 2  1 1 2 103   0  1.452046e+03 -1.759459e+03 -1.926995e+02  2.289381e+03 0.0022 0.0 9.0
22  1 1 2   0   0 -1.452046e+03  1.759459e+03 -2.487105e+03  3.374881e+03 0.0 0.0 9.0
#pdf 2 21 2.295737e-01 6.418512e-01 5000.0 3.413136e-01 1.843920e-02
</event>
<event>
4 7 1.0 5000.0 7.905138e-03 7.739137e-02
21 -1 0 0 103 101  0.000000e+00  0.000000e+00  3.062157e+03  3.062157e+03 0.0 0.0 9.0
 2 -1 0 0 101   0  0.000000e+00  0.000000e+00 -2.004839e+03  2.004839e+03 0.0 0.0 9.0
 2  1 1 2 103   0  1.953431e+03  3.833816e+02  2.037080e+03  2.848257e+03 0.0022 0.0 9.0
22  1 1 2   0   0 -1.953431e+03 -3.833816e+02 -9.797622e+02  2.218740e+03 0.0 0.0 9.0
#pdf 21 2 4.711011e-01 3.084368e-01 5000.0 4.173041e-03 3.251652e-02
</event>
<event>
4 7 1.0 5000.0 7.905138e-03 7.739137e-02
 2 -1 0 0 101   0  0.000000e+00  0.000000e+00  1.844258e+03  1.844258e+03 0.0 0.0 9.0
21 -1 0 0 103 101  0.000000e+00  0.000000e+00 -3.293100e+03  3.293100e+03 0.0 0.0 9.0
22  1 1 2   0   0 -2.238064e+03  2.579810e+02  3.167626e+02  2.275044e+03 0.0 0.0 9.0
 2  1 1 2 103   0  2.238064e+03 -2.579810e+02 -1.765605e+03  2.862315e+03 0.0022 0.0 9.0
#pdf 2 21 2.837320e-01 5.066308e-01 5000.0 2.695208e-01 6.683738e-02
</event>
<event>
4 7 1.0 5000.0 7.905138e-03 7.739137e-02
21 -1 0 0 103 101  0.000000e+00  0.000000e+00  1.875218e+03  1.875218e+03 0.0 0.0 9.0
 2 -1 0 0 101   0  0.000000e+00  0.000000e+00 -3.457119e+03  3.457119e+03 0.0 0.0 9.0
22  1 1 2   0   0  7.266156e+02  3.122979e+02 -3.325234e+03  3.417994e+03 0.0 0.0 9.0
 2  1 1 2 103   0 -7.266156e+02 -3.122979e+02  1.743333e+03  1.914343e+03 0.0022 0.0 9.0
#pdf 21 2 2.884951e-01 5.318645e-01 5000.0 4.148795e-02 1.801225e-03
</event>
<event>
4 7 1.0 5000.0 7.905138e-03 7.739137e-02
 2 -1 0 0 101   0  0.000000e+00  0.000000e+00  1.554108e+03  1.554108e+03 0.0 0.0 9.0
21 -1 0 0 103 101  0.000000e+00  0.000000e+00 -3.988194e+03  3.988194e+03 0.0 0.0 9.0
 2  1 1 2 103   0  2.388423e+02 -2.415178e+03 -5.993462e+02  2.499869e+03 0.0022 0.0 9.0
22  1 1 2   0   0 -2.388423e+02  2.415178e+03 -1.834739e+03  3.042433e+03 0.0 0.0 9.0
#pdf 2 21 2.390935e-01 6.135683e-01 5000.0 3.282963e-01 2.510470e-02
</event>
<event>
4 7 1.0 5000.0 7.905138e-03 7.739137e-02
 2 -1 0 0 101   0  0.000000e+00  0.000000e+00  3.430980e+03  3.430980e+03 0.0 0.0 9.0
21 -1 0 0 103 101  0.000000e+00  0.000000e+00 -1.769284e+03  1.769284e+03 0.0 0.0 9.0
22  1 1 2   0   0  9.104682e+02  2.267080e+03  4.941827e+02  2.492553e+03 0.0 0.0 9.0
 2  1 1 2 103   0 -9.104682e+02 -2.267080e+03  1.167513e+03  2.707710e+03 0.0022 0.0 9.0
#pdf 2 21 5.278430e-01 2.721975e-01 5000.0 5.615553e-02 2.843287e-01
</event>
<event>
4 7 1.0 5000.0 7.905138e-03 7.739137e-02
21 -1 0 0 103 101  0.000000e+00  0.000000e+00  4.306815e+03  4.306815e+03 0.0 0.0 9.0
 2 -1 0 0 101   0  0.000000e+00  0.000000e+00 -1.447924e+03  1.447924e+03 0.0 0.0 9.0
22  1 1 2   0   0  1.912641e+03  1.100517e+03  8.244919e+01  2.208197e+03 0.0 0.0 9.0
 2  1 1 2 103   0 -1.912641e+03 -1.100517e+03  2.776442e+03  3.546543e+03 0.0022 0.0 9.0
#pdf 21 2 6.625869e-01 2.227576e-01 5000.0 2.209728e-04 9.390068e-02
</event>
<event>
4 7 1.0 5000.0 7.905138e-03 7.739137e-02
21 -1 0 0 103 101  0.000000e+00  0.000000e+00  1.858798e+03  1.858798e+03 0.0 0.0 9.0
 2 -1 0 0 101   0  0.000000e+00  0.000000e+00 -3.602454e+03  3.602454e+03 0.0 0.0 9.0
 2  1 1 2 103   0 -8.177491e+02  2.315373e+03 -1.733355e+03  3.005692e+03 0.0022 0.0 9.0
22  1 1 2   0   0  8.177491e+02 -2.315373e+03 -1.030154e+01  2.455559e+03 0.0 0.0 9.0
#pdf 21 2 2.859688e-01 5.542237e-01 5000.0 4.277750e-02 1.298708e-03
</event>
<event>
4 7 1.0 5000.0 7.905138e-03 7.739137e-02
 2 -1 0 0 101   0  0.000000e+00  0.000000e+00  1.545990e+03  1.545990e+03 0.0 0.0 9.0
21 -1 0 0 103 101  0.000000e+00  0.000000e+00 -4.007543e+03  4.007543e+03 0.0 0.0 9.0
 2  1 1 2 103   0  2.314510e+03  4.430434e+02 -3.366642e+02  2.380459e+03 0.0022 0.0 9.0
22  1 1 2   0   0 -2.314510e+03 -4.430434e+02 -2.124889e+03  3.173074e+03 0.0 0.0 9.0
#pdf 2 21 2.378446e-01 6.165451e-01 5000.0 3.299943e-01 2.433046e-02
</event>
<event>
4 7 1.0 5000.0 7.905138e-03 7.739137e-02
 2 -1 0 0 101   0  0.000000e+00  0.000000e+00  1.980583e+03  1.980583e+03 0.0 0.0 9.0
21 -1 0 0 103 101  0.000000e+00  0.000000e+00 -3.307426e+03  3.307426e+03 0.0 0.0 9.0
 2  1 1 2 103   0  3.791925e+02 -1.565395e+03 -2.718223e+03  3.159586e+03 0.0022 0.0 9.0
22  1 1 2   0   0 -3.791925e+02  1.565395e+03  1.391379e+03  2.128423e+03 0.0 0.0 9.0
#pdf 2 21 3.047050e-01 5.088348e-01 5000.0 2.434498e-01 6.566466e-02
</event>
<event>
4 7 1.0 5000.0 7.905138e-03 7.739137e-02
 2 -1 0 0 101   0  0.000000e+00  0.000000e+00  1.689930e+03  1.689930e+03 0.0 0.0 9.0
21 -1 0 0 103 101  0.000000e+00  0.000000e+00 -3.663069e+03  3.663069e+03 0.0 0.0 9.0
22  1 1 2   0   0  8.434452e+02  2.156232e+03 -6.758229e+00  2.315337e+03 0.0 0.0 9.0
 2  1 1 2 103   0 -8.434452e+02 -2.156232e+03 -1.966380e+03  3.037662e+03 0.0022 0.0 9.0
#pdf 2 21 2.599892e-01 5.635490e-01 5000.0 3.003176e-01 4.101787e-02
</event>
<event>
4 7 1.0 5000.0 7.905138e-03 7.739137e-02
 2 -1 0 0 101   0  0.000000e+00  0.000000e+00  2.912283e+03  2.912283e+03 0.0 0.0 9.0
21 -1 0 0 103 101  0.000000e+00  0.000000e+00 -2.143586e+03  2.143586e+03 0.0 0.0 9.0
 2  1 1 2 103   0  1.290605e+03  1.909316e+03 -5.921899e+02  2.379461e+03 0.0022 0.0 9.0
22  1 1 2   0   0 -1.290605e+03 -1.909316e+03  1.360886e+03  2.676408e+03 0.0 0.0 9.0
#pdf 2 21 4.480435e-01 3.297825e-01 5000.0 1.036664e-01 2.139714e-01
</event>
<event>
4 7 1.0 5000.0 7.905138e-03 7.739137e-02
 2 -1 0 0 101   0  0.000000e+00  0.000000e+00  2.406330e+03  2.406330e+03 0.0 0.0 9.0
21 -1 0 0 103 101  0.000000e+00  0.000000e+00 -2.664949e+03  2.664949e+03 0.0 0.0 9.0
22  1 1 2   0   0  2.024037e+03 -6.839027e+02 -1.490602e+03  2.605061e+03 0.0 0.0 9.0
 2  1 1 2 103   0 -2.024037e+03  6.839027e+02  1.231983e+03  2.466218e+03 0.0022 0.0 9.0
#pdf 2 21 3.702047e-01 4.099921e-01 5000.0 1.707619e-01 1.338131e-01
</event>
<event>
4 7 1.0 5000.0 7.905138e-03 7.739137e-02
21 -1 0 0 103 101  0.000000e+00  0.000000e+00  2.103827e+03  2.103827e+03 0.0 0.0 9.0
 2 -1 0 0 101   0  0.000000e+00  0.000000e+00 -2.980944e+03  2.980944e+03 0.0 0.0 9.0
 2  1 1 2 103   0 -8.280231e+02  8.168445e+02 -2.690087e+03  2.930772e+03 0.0022 0.0 9.0
22  1 1 2   0   0  8.280231e+02 -8.168445e+02  1.812970e+03  2.154000e+03 0.0 0.0 9.0
#pdf 21 2 3.236657e-01 4.586068e-01 5000.0 2.695591e-02 4.926142e-03
</event>
<event>
4 7 1.0 5000.0 7.905138e-03 7.739137e-02
21 -1 0 0 103 101  0.000000e+00  0.000000e+00  1.782873e+03  1.782873e+03 0.0 0.0 9.0
 2 -1 0 0 101   0  0.000000e+00  0.000000e+00 -2.840369e+03  2.840369e+03 0.0 0.0 9.0
 2  1 1 2 103   0 -1.210578e+03 -1.621292e+03 -1.540418e+03  2.543025e+03 0.0022 0.0 9.0
22  1 1 2   0   0  1.210578e+03  1.621292e+03  4.829221e+02  2.080216e+03 0.0 0.0 9.0
#pdf 21 2 2.742881e-01 4.369798e-01 5000.0 4.937366e-02 6.540686e-03
</event>
<event>
4 7 1.0 5000.0 7.905138e-03 7.739137e-02
 2 -1 0 0 101   0  0.000000e+00  0.000000e+00  1.970964e+03  1.970964e+03 0.0 0.0 9.0
21 -1 0 0 103 101  0.000000e+00  0.000000e+00 -3.134725e+03  3.134725e+03 0.0 0.0 9.0
 2  1 1 2 103   0  2.420580e+03  1.028272e+02 -1.152462e+03  2.682900e+03 0.0022 0.0 9.0
22  1 1 2   0   0 -2.420580e+03 -1.028272e+02 -1.129899e+01  2.422790e+03 0.0 0.0 9.0
#pdf 2 21 3.032253e-01 4.822654e-01 5000.0 2.452514e-01 8.080350e-02
</event>
<event>
4 7 1.0 5000.0 7.905138e-03 7.739137e-02
 2 -1 0 0 101   0  0.000000e+00  0.000000e+00  1.627366e+03  1.627366e+03 0.0 0.0 9.0
21 -1 0 0 103 101  0.000000e+00  0.000000e+00 -3.782265e+03  3.782265e+03 0.0 0.0 9.0
22  1 1 2   0   0 -1.391868e+02  2.036580e+03 -2.614675e+03  3.317161e+03 0.0 0.0 9.0
 2  1 1 2 103   0  1.391868e+02 -2.036580e+03  4.597759e+02  2.092469e+03 0.0022 0.0 9.0
#pdf 2 21 2.503639e-01 5.818869e-01 5000.0 3.131108e-01 3.450445e-02
</event>
<event>
4 7 1.0 5000.0 7.905138e-03 7.739137e-02
21 -1 0 0 103 101  0.000000e+00  0.000000e+00  2.863733e+03  2.863733e+03 0.0 0.0 9.0
 2 -1 0 0 101   0  0.000000e+00  0.000000e+00 -2.175316e+03  2.175316e+03 0.0 0.0 9.0
 2  1 1 2 103   0 -4.137760e+02  1.417933e+03  2.375160e+03  2.796986e+03 0.0022 0.0 9.0
22  1 1 2   0   0  4.137760e+02 -1.417933e+03 -1.686743e+03  2.242063e+03 0.0 0.0 9.0
#pdf 21 2 4.405743e-01 3.346641e-01 5000.0 6.243684e-03 2.355868e-02
</event>
<event>
4 7 1.0 5000.0 7.905138e-03 7.739137e-02
 2 -1 0 0 101   0  0.000000e+00  0.000000e+00  2.063457e+03  2.063457e+03 0.0 0.0 9.0
21 -1 0 0 103 101  0.000000e+00  0.000000e+00 -3.031609e+03  3.031609e+03 0.0 0.0 9.0
22  1 1 2   0   0  2.121078e+03 -4.286086e+02  7.933587e+02  2.304798e+03 0.0 0.0 9.0
 2  1 1 2 103   0 -2.121078e+03  4.286086e+02 -1.761510e+03  2.790268e+03 0.0022 0.0 9.0
#pdf 2 21 3.174550e-01 4.664013e-01 5000.0 2.282269e-01 9.092209e-02
</event>
<event>
4 7 1.0 5000.0 7.905138e-03 7.739137e-02
21 -1 0 0 103 101  0.000000e+00  0.000000e+00  4.512826e+03  4.512826e+03 0.0 0.0 9.0
 2 -1 0 0 101   0  0.000000e+00  0.000000e+00 -1.282793e+03  1.282793e+03 0.0 0.0 9.0
 2  1 1 2 103   0  1.200005e+03 -1.456907e+03 -1.820816e+02  1.896244e+03 0.0022 0.0 9.0
22  1 1 2   0   0 -1.200005e+03  1.456907e+03  3.412115e+03  3.899374e+03 0.0 0.0 9.0
#pdf 21 2 6.942809e-01 1.973527e-01 5000.0 1.213385e-04 1.302174e-01
</event>
<event>
4 7 1.0 5000.0 7.905138e-03 7.739137e-02
 2 -1 0 0 101   0  0.000000e+00  0.000000e+00  1.795438e+03  1.795438e+03 0.0 0.0 9.0
21 -1 0 0 103 101  0.000000e+00  0.000000e+00 -3.222474e+03  3.222474e+03 0.0 0.0 9.0
22  1 1 2   0   0 -1.676715e+03  8.168630e+01 -2.510417e+03  3.019973e+03 0.0 0.0 9.0
 2  1 1 2 103   0  1.676715e+03 -8.168630e+01  1.083382e+03  1.997939e+03 0.0022 0.0 9.0
#pdf 2 21 2.762213e-01 4.957652e-01 5000.0 2.791228e-01 7.283547e-02
</event>
<event>
4 7 1.0 5000.0 7.905138e-03 7.739137e-02
21 -1 0 0 103 101  0.000000e+00  0.000000e+00  2.354405e+03  2.354405e+03 0.0 0.0 9.0
 2 -1 0 0 101   0  0.000000e+00  0.000000e+00 -2.670021e+03  2.670021e+03 0.0 0.0 9.0
22  1 1 2   0   0 -3.797634e+02 -1.879075e+03 -1.776916e+03  2.613919e+03 0.0 0.0 9.0
 2  1 1 2 103   0  3.797634e+02  1.879075e+03  1.461300e+03  2.410506e+03 0.0022 0.0 9.0
#pdf 21 2 3.622161e-01 4.107724e-01 5000.0 1.678671e-02 9.143422e-03
</event>
<event>
4 7 1.0 5000.0 7.905138e-03 7.739137e-02
 2 -1 0 0 101   0  0.000000e+00  0.000000e+00  2.116903e+03  2.116903e+03 0.0 0.0 9.0
21 -1 0 0 103 101  0.000000e+00  0.000000e+00 -2.599105e+03  2.599105e+03 0.0 0.0 9.0
 2  1 1 2 103   0  5.798698e+02 -1.537833e+03  1.441297e+03  2.185982e+03 0.0022 0.0 9.0
22  1 1 2   0   0 -5.798698e+02  1.537833e+03 -1.923500e+03  2.530026e+03 0.0 0.0 9.0
#pdf 2 21 3.256773e-01 3.998623e-01 5000.0 2.186678e-01 1.426996e-01
</event>
<event>
4 7 1.0 5000.0 7.905138e-03 7.739137e-02
21 -1 0 0 103 101  0.000000e+00  0.000000e+00  1.791707e+03  1.791707e+03 0.0 0.0 9.0
 2 -1 0 0 101   0  0.000000e+00  0.000000e+00 -3.529493e+03  3.529493e+03 0.0 0.0 9.0
 2  1 1 2 103   0 -2.315601e+03 -5.575621e+02 -1.528329e+01  2.381830e+03 0.0022 0.0 9.0
22  1 1 2   0   0  2.315601e+03  5.575621e+02 -1.722502e+03  2.939370e+03 0.0 0.0 9.0
#pdf 21 2 2.756473e-01 5.429989e-01 5000.0 4.855607e-02 1.531938e-03
</event>
<event>
4 7 1.0 5000.0 7.905138e-03 7.739137e-02
 2 -1 0 0 101   0  0.000000e+00  0.000000e+00  1.922723e+03  1.922723e+03 0.0 0.0 9.0
21 -1 0 0 103 101  0.000000e+00  0.000000e+00 -3.307550e+03  3.307550e+03 0.0 0.0 9.0
 2  1 1 2 103   0 -8.351449e+02 -2.373906e+03 -5.232633e+02  2.570351e+03 0.0022 0.0 9.0
22  1 1 2   0   0  8.351449e+02  2.373906e+03 -8.615634e+02  2.659923e+03 0.0 0.0 9.0
#pdf 2 21 2.958036e-01 5.088539e-01 5000.0 2.543586e-01 6.565458e-02
</event>
<event>
4 7 1.0 5000.0 7.905138e-03 7.739137e-02
21 -1 0 0 103 101  0.000000e+00  0.000000e+00  2.719134e+03  2.719134e+03 0.0 0.0 9.0
 2 -1 0 0 101   0  0.000000e+00  0.000000e+00 -2.346751e+03  2.346751e+03 0.0 0.0 9.0
22  1 1 2   0   0 -6.745990e+02  1.091897e+03 -1.995442e+03  2.372575e+03 0.0 0.0 9.0
 2  1 1 2 103   0  6.745990e+02 -1.091897e+03  2.367825e+03  2.693310e+03 0.0022 0.0 9.0
#pdf 21 2 4.183283e-01 3.610386e-01 5000.0 8.305380e-03 1.703061e-02
</event>
<event>
4 7 1.0 5000.0 7.905138e-03 7.739137e-02
21 -1 0 0 103 101  0.000000e+00  0.000000e+00  1.963987e+03  1.963987e+03 0.0 0.0 9.0
 2 -1 0 0 101   0  0.000000e+00  0.000000e+00 -3.150914e+03  3.150914e+03 0.0 0.0 9.0
22  1 1 2   0   0  3.037799e+02  2.467230e+03 -6.901833e+02  2.579895e+03 0.0 0.0 9.0
 2  1 1 2 103   0 -3.037799e+02 -2.467230e+03 -4.967433e+02  2.535006e+03 0.0022 0.0 9.0
#pdf 21 2 3.021519e-01 4.847560e-01 5000.0 3.509504e-02 3.470924e-03
</event>
<event>
4 7 1.0 5000.0 7.905138e-03 7.739137e-02
 2 -1 0 0 101   0  0.000000e+00  0.000000e+00  1.906115e+03  1.906115e+03 0.0 0.0 9.0
21 -1 0 0 103 101  0.000000e+00  0.000000e+00 -3.311010e+03  3.311010e+03 0.0 0.0 9.0
22  1 1 2   0   0  2.354360e+03 -6.402170e+02 -1.323967e+03  2.775929e+03 0.0 0.0 9.0
 2  1 1 2 103   0 -2.354360e+03  6.402170e+02 -8.092742e+01  2.441196e+03 0.0022 0.0 9.0
#pdf 2 21 2.932485e-01 5.093861e-01 5000.0 2.575319e-01 6.537360e-02
</event>
<event>
4 7 1.0 5000.0 7.905138e-03 7.739137e-02
21 -1 0 0 103 101  0.000000e+00  0.000000e+00  2.152524e+03  2.152524e+03 0.0 0.0 9.0
 2 -1 0 0 101   0  0.000000e+00  0.000000e+00 -2.793779e+03  2.793779e+03 0.0 0.0 9.0
22  1 1 2   0   0 -8.969663e+02  1.755468e+03 -1.791624e+03  2.663857e+03 0.0 0.0 9.0
 2  1 1 2 103   0  8.969663e+02 -1.755468e+03  1.150369e+03  2.282447e+03 0.0022 0.0 9.0
#pdf 21 2 3.311576e-01 4.298122e-01 5000.0 2.459501e-02 7.168242e-03
</event>
<event>
4 7 1.0 5000.0 7.905138e-03 7.739137e-02
 2 -1 0 0 101   0  0.000000e+00  0.000000e+00  4.483714e+03  4.483714e+03 0.0 0.0 9.0
21 -1 0 0 103 101  0.000000e+00  0.000000e+00 -1.393561e+03  1.393561e+03 0.0 0.0 9.0
22  1 1 2   0   0  1.670240e+03 -1.765075e+03  8.564279e+02  2.576560e+03 0.0 0.0 9.0
 2  1 1 2 103   0 -1.670240e+03  1.765075e+03  2.233725e+03  3.300715e+03 0.0022 0.0 9.0
#pdf 2 21 6.898021e-01 2.143940e-01 5000.0 1.026601e-02 3.621196e-01
</event>
<event>
4 7 1.0 5000.0 7.905138e-03 7.739137e-02
21 -1 0 0 103 101  0.000000e+00  0.000000e+00  1.320968e+03  1.320968e+03 0.0 0.0 9.0
 2 -1 0 0 101   0  0.000000e+00  0.000000e+00 -4.353653e+03  4.353653e+03 0.0 0.0 9.0
22  1 1 2   0   0  1.563645e+03  1.384840e+03 -1.223182e+02  2.092302e+03 0.0 0.0 9.0
 2  1 1 2 103   0 -1.563645e+03 -1.384840e+03 -2.910367e+03  3.582318e+03 0.0022 0.0 9.0
#pdf 21 2 2.032258e-01 6.697927e-01 5000.0 1.206047e-01 1.935599e-04
</event>
<event>
4 7 1.0 5000.0 7.905138e-03 7.739137e-02
 2 -1 0 0 101   0  0.000000e+00  0.000000e+00  3.828466e+03  3.828466e+03 0.0 0.0 9.0
21 -1 0 0 103 101  0.000000e+00  0.000000e+00 -1.630531e+03  1.630531e+03 0.0 0.0 9.0
22  1 1 2   0   0 -2.715754e+02 -1.108199e+03 -1.329290e+03  1.751819e+03 0.0 0.0 9.0
 2  1 1 2 103   0  2.715754e+02  1.108199e+03  3.527224e+03  3.707178e+03 0.0022 0.0 9.0
#pdf 2 21 5.889947e-01 2.508510e-01 5000.0 3.220105e-02 3.124570e-01
</event>
<event>
4 7 1.0 5000.0 7.905138e-03 7.739137e-02
 2 -1 0 0 101   0  0.000000e+00  0.000000e+00  2.688792e+03  2.688792e+03 0.0 0.0 9.0
21 -1 0 0 103 101  0.000000e+00  0.000000e+00 -2.003377e+03  2.003377e+03 0.0 0.0 9.0
22  1 1 2   0   0 -2.271371e+03  3.096961e+02  7.094415e+02  2.399655e+03 0.0 0.0 9.0
 2  1 1 2 103   0  2.271371e+03 -3.096961e+02 -2.402686e+01  2.292513e+03 0.0022 0.0 9.0
#pdf 2 21 4.136603e-01 3.082118e-01 5000.0 1.306857e-01 2.392102e-01
</event>
<event>
4 7 1.0 5000.0 7.905138e-03 7.739137e-02
 2 -1 0 0 101   0  0.000000e+00  0.000000e+00  1.145667e+03  1.145667e+03 0.0 0.0 9.0
21 -1 0 0 103 101  0.000000e+00  0.000000e+00 -4.165282e+03  4.165282e+03 0.0 0.0 9.0
 2  1 1 2 103   0  1.153272e+03 -1.121116e+03 -3.306712e+03  3.677130e+03 0.0022 0.0 9.0
22  1 1 2   0   0 -1.153272e+03  1.121116e+03  2.870975e+02  1.633819e+03 0.0 0.0 9.0
#pdf 2 21 1.762564e-01 6.408125e-01 5000.0 4.145779e-01 1.865770e-02
</event>
<event>
4 7 1.0 5000.0 7.905138e-03 7.739137e-02
21 -1 0 0 103 101  0.000000e+00  0.000000e+00  2.983146e+03  2.983146e+03 0.0 0.0 9.0
 2 -1 0 0 101   0  0.000000e+00  0.000000e+00 -2.104556e+03  2.104556e+03 0.0 0.0 9.0
 2  1 1 2 103   0 -9.231336e+02 -1.451351e+03 -1.410472e+03  2.224416e+03 0.0022 0.0 9.0
22  1 1 2   0   0  9.231336e+02  1.451351e+03  2.289062e+03  2.863285e+03 0.0 0.0 9.0
#pdf 21 2 4.589455e-01 3.237778e-01 5000.0 4.903953e-03 2.691900e-02
</event>
<event>
4 7 1.0 5000.0 7.905138e-03 7.739137e-02
 2 -1 0 0 101   0  0.000000e+00  0.000000e+00  3.656318e+03  3.656318e+03 0.0 0.0 9.0
21 -1 0 0 103 101  0.000000e+00  0.000000e+00 -1.709790e+03  1.709790e+03 0.0 0.0 9.0
22  1 1 2   0   0  1.004005e+03 -5.442904e+02 -1.413549e+03  1.817250e+03 0.0 0.0 9.0
 2  1 1 2 103   0 -1.004005e+03  5.442904e+02  3.360077e+03  3.548858e+03 0.0022 0.0 9.0
#pdf 2 21 5.625105e-01 2.630446e-01 5000.0 4.141237e-02 2.962957e-01
</event>
<event>
4 7 1.0 5000.0 7.905138e-03 7.739137e-02
21 -1 0 0 103 101  0.000000e+00  0.000000e+00  2.394002e+03  2.394002e+03 0.0 0.0 9.0
 2 -1 0 0 101   0  0.000000e+00  0.000000e+00 -2.563041e+03  2.563041e+03 0.0 0.0 9.0
 2  1 1 2 103   0  5.106272e+01  1.459033e+03 -2.086819e+03  2.546801e+03 0.0022 0.0 9.0
22  1 1 2   0   0 -5.106272e+01 -1.459033e+03  1.917780e+03  2.410242e+03 0.0 0.0 9.0
#pdf 21 2 3.683080e-01 3.943140e-01 5000.0 1.556165e-02 1.125596e-02
</event>
<event>
4 7 1.0 5000.0 7.905138e-03 7.739137e-02
 2 -1 0 0 101   0  0.000000e+00  0.000000e+00  2.875525e+03  2.875525e+03 0.0 0.0 9.0
21 -1 0 0 103 101  0.000000e+00  0.000000e+00 -1.563985e+03  1.563985e+03 0.0 0.0 9.0
 2  1 1 2 103   0  1.481767e+03 -1.477555e+03  2.954862e+02  2.113319e+03 0.0022 0.0 9.0
22  1 1 2   0   0 -1.481767e+03  1.477555e+03  1.016053e+03  2.326191e+03 0.0 0.0 9.0
#pdf 2 21 4.423884e-01 2.406131e-01 5000.0 1.078411e-01 3.262376e-01
</event>
<event>
4 7 1.0 5000.0 7.905138e-03 7.739137e-02
 2 -1 0 0 101   0  0.000000e+00  0.000000e+00  2.625182e+03  2.625182e+03 0.0 0.0 9.0
21 -1 0 0 103 101  0.000000e+00  0.000000e+00 -2.380396e+03  2.380396e+03 0.0 0.0 9.0
 2  1 1 2 103   0  4.293395e+02 -3.017862e+02 -2.324622e+03  2.383123e+03 0.0022 0.0 9.0
22  1 1 2   0   0 -4.293395e+02  3.017862e+02  2.569408e+03  2.622454e+03 0.0 0.0 9.0
#pdf 2 21 4.038741e-01 3.662147e-01 5000.0 1.391347e-01 1.747819e-01
</event>
<event>
4 7 1.0 5000.0 7.905138e-03 7.739137e-02
21 -1 0 0 103 101  0.000000e+00  0.000000e+00  2.547496e+03  2.547496e+03 0.0 0.0 9.0
 2 -1 0 0 101   0  0.000000e+00  0.000000e+00 -2.476114e+03  2.476114e+03 0.0 0.0 9.0
 2  1 1 2 103   0  2.159288e+03 -1.704892e+02 -1.235775e+03  2.493738e+03 0.0022 0.0 9.0
22  1 1 2   0   0 -2.159288e+03  1.704892e+02  1.307157e+03  2.529872e+03 0.0 0.0 9.0
#pdf 21 2 3.919225e-01 3.809406e-01 5000.0 1.159945e-02 1.331851e-02
</event>
<event>
4 7 1.0 5000.0 7.905138e-03 7.739137e-02
 2 -1 0 0 101   0  0.000000e+00  0.000000e+00  1.635703e+03  1.635703e+03 0.0 0.0 9.0
21 -1 0 0 103 101  0.000000e+00  0.000000e+00 -3.856908e+03  3.856908e+03 0.0 0.0 9.0
22  1 1 2   0   0  1.561361e+03  7.121537e+02  8.947390e+02  1.935348e+03 0.0 0.0 9.0
 2  1 1 2 103   0 -1.561361e+03 -7.121537e+02 -3.115945e+03  3.557264e+03 0.0022 0.0 9.0
#pdf 2 21 2.516466e-01 5.933705e-01 5000.0 3.113907e-01 3.084054e-02
</event>
<event>
4 7 1.0 5000.0 7.905138e-03 7.739137e-02
 2 -1 0 0 101   0  0.000000e+00  0.000000e+00  2.341235e+03  2.341235e+03 0.0 0.0 9.0
21 -1 0 0 103 101  0.000000e+00  0.000000e+00 -2.618822e+03  2.618822e+03 0.0 0.0 9.0
 2  1 1 2 103   0  1.734586e+03 -7.136861e+02 -1.757852e+03  2.570638e+03 0.0022 0.0 9.0
22  1 1 2   0   0 -1.734586e+03  7.136861e+02  1.480266e+03  2.389419e+03 0.0 0.0 9.0
#pdf 2 21 3.601901e-01 4.028957e-01 5000.0 1.809520e-01 1.399987e-01
</event>
<event>
4 7 1.0 5000.0 7.905138e-03 7.739137e-02
 2 -1 0 0 101   0  0.000000e+00  0.000000e+00  5.176140e+03  5.176140e+03 0.0 0.0 9.0
21 -1 0 0 103 101  0.000000e+00  0.000000e+00 -1.652904e+03  1.652904e+03 0.0 0.0 9.0
22  1 1 2   0   0 -1.423277e+03 -2.314849e+03  4.981650e+02  2.762682e+03 0.0 0.0 9.0
 2  1 1 2 103   0  1.423277e+03  2.314849e+03  3.025071e+03  4.066362e+03 0.0022 0.0 9.0
#pdf 2 21 7.963292e-01 2.542929e-01 5000.0 1.832546e-03 3.078590e-01
</event>
<event>
4 7 1.0 5000.0 7.905138e-03 7.739137e-02
21 -1 0 0 103 101  0.000000e+00  0.000000e+00  2.085434e+03  2.085434e+03 0.0 0.0 9.0
 2 -1 0 0 101   0  0.000000e+00  0.000000e+00 -3.105059e+03  3.105059e+03 0.0 0.0 9.0
22  1 1 2   0   0  1.436736e+03  2.037177e+03 -1.030943e+03  2.697618e+03 0.0 0.0 9.0
 2  1 1 2 103   0 -1.436736e+03 -2.037177e+03  1.131718e+01  2.492875e+03 0.0022 0.0 9.0
#pdf 21 2 3.208359e-01 4.777014e-01 5000.0 2.790569e-02 3.819248e-03
</event>
<event>
4 7 1.0 5000.0 7.905138e-03 7.739137e-02
21 -1 0 0 103 101  0.000000e+00  0.000000e+00  4.244172e+03  4.244172e+03 0.0 0.0 9.0
 2 -1 0 0 101   0  0.000000e+00  0.000000e+00 -1.483366e+03  1.483366e+03 0.0 0.0 9.0
 2  1 1 2 103   0 -1.362696e+03  2.105694e+03  1.459251e+03  2.901775e+03 0.0022 0.0 9.0
22  1 1 2   0   0  1.362696e+03 -2.105694e+03  1.301555e+03  2.825762e+03 0.0 0.0 9.0
#pdf 21 2 6.529495e-01 2.282102e-01 5000.0 2.630449e-04 8.759252e-02
</event>
<event>
4 7 1.0 5000.0 7.905138e-03 7.739137e-02
 2 -1 0 0 101   0  0.000000e+00  0.000000e+00  4.173432e+03  4.173432e+03 0.0 0.0 9.0
21 -1 0 0 103 101  0.000000e+00  0.000000e+00 -1.518293e+03  1.518293e+03 0.0 0.0 9.0
 2  1 1 2 103   0  6.160686e+02 -2.336154e+03  2.126459e+03  3.218538e+03 0.0022 0.0 9.0
22  1 1 2   0   0 -6.160686e+02  2.336154e+03  5.286795e+02  2.473188e+03 0.0 0.0 9.0
#pdf 2 21 6.420665e-01 2.335836e-01 5000.0 1.839415e-02 3.358165e-01
</event>
<event>
4 7 1.0 5000.0 7.905138e-03 7.739137e-02
21 -1 0 0 103 101  0.000000e+00  0.000000e+00  3.446534e+03  3.446534e+03 0.0 0.0 9.0
 2 -1 0 0 101   0  0.000000e+00  0.000000e+00 -1.855902e+03  1.855902e+03 0.0 0.0 9.0
 2  1 1 2 103   0  6.775519e+02 -1.034098e+03 -1.517556e+03  1.957399e+03 0.0022 0.0 9.0
22  1 1 2   0   0 -6.775519e+02  1.034098e+03  3.108188e+03  3.345037e+03 0.0 0.0 9.0
#pdf 21 2 5.302360e-01 2.855234e-01 5000.0 1.843839e-03 4.300963e-02
</event>
<event>
4 7 1.0 5000.0 7.905138e-03 7.739137e-02
21 -1 0 0 103 101  0.000000e+00  0.000000e+00  2.607007e+03  2.607007e+03 0.0 0.0 9.0
 2 -1 0 0 101   0  0.000000e+00  0.000000e+00 -2.204852e+03  2.204852e+03 0.0 0.0 9.0
 2  1 1 2 103   0  1.449673e+03 -1.811517e+03 -4.051270e+02  2.355265e+03 0.0022 0.0 9.0
22  1 1 2   0   0 -1.449673e+03  1.811517e+03  8.072820e+02  2.456593e+03 0.0 0.0 9.0
#pdf 21 2 4.010780e-01 3.392080e-01 5000.0 1.033859e-02 2.227806e-02
</event>
<event>
4 7 1.0 5000.0 7.905138e-03 7.739137e-02
21 -1 0 0 103 101  0.000000e+00  0.000000e+00  1.758376e+03  1.758376e+03 0.0 0.0 9.0
 2 -1 0 0 101   0  0.000000e+00  0.000000e+00 -3.761899e+03  3.761899e+03 0.0 0.0 9.0
22  1 1 2   0   0  2.480657e+03 -2.528041e+02 -1.678172e+03  3.005633e+03 0.0 0.0 9.0
 2  1 1 2 103   0 -2.480657e+03  2.528041e+02 -3.253506e+02  2.514642e+03 0.0022 0.0 9.0
#pdf 21 2 2.705194e-01 5.787537e-01 5000.0 5.171404e-02 8.958109e-04
</event>
<event>
4 7 1.0 5000.0 7.905138e-03 7.739137e-02
21 -1 0 0 103 101  0.000000e+00  0.000000e+00  1.856266e+03  1.856266e+03 0.0 0.0 9.0
 2 -1 0 0 101   0  0.000000e+00  0.000000e+00 -3.369052e+03  3.369052e+03 0.0 0.0 9.0
 2  1 1 2 103   0 -8.083791e+02 -1.996624e+03  5.708295e+02  2.228414e+03 0.0022 0.0 9.0
22  1 1 2   0   0  8.083791e+02  1.996624e+03 -2.083615e+03  2.996904e+03 0.0 0.0 9.0
#pdf 21 2 2.855794e-01 5.183157e-01 5000.0 4.298033e-02 2.183075e-03
</event>
<event>
4 7 1.0 5000.0 7.905138e-03 7.739137e-02
 2 -1 0 0 101   0  0.000000e+00  0.000000e+00  2.528526e+03  2.528526e+03 0.0 0.0 9.0
21 -1 0 0 103 101  0.000000e+00  0.000000e+00 -2.478545e+03  2.478545e+03 0.0 0.0 9.0
22  1 1 2   0   0  1.364672e+03  4.966614e+02 -2.014244e+03  2.483180e+03 0.0 0.0 9.0
 2  1 1 2 103   0 -1.364672e+03 -4.966614e+02  2.064225e+03  2.523891e+03 0.0022 0.0 9.0
#pdf 2 21 3.890040e-01 3.813146e-01 5000.0 1.526229e-01 1.598976e-01
</event>
<event>
4 7 1.0 5000.0 7.905138e-03 7.739137e-02
21 -1 0 0 103 101  0.000000e+00  0.000000e+00  2.381613e+03  2.381613e+03 0.0 0.0 9.0
 2 -1 0 0 101   0  0.000000e+00  0.000000e+00 -2.676158e+03  2.676158e+03 0.0 0.0 9.0
 2  1 1 2 103   0 -7.608816e+01  4.393525e+02  2.341857e+03  2.383928e+03 0.0022 0.0 9.0
22  1 1 2   0   0  7.608816e+01 -4.393525e+02 -2.636402e+03  2.673843e+03 0.0 0.0 9.0
#pdf 21 2 3.664020e-01 4.117166e-01 5000.0 1.593977e-02 9.034208e-03
</event>
<event>
4 7 1.0 5000.0 7.905138e-03 7.739137e-02
21 -1 0 0 103 101  0.000000e+00  0.000000e+00  2.476114e+03  2.476114e+03 0.0 0.0 9.0
 2 -1 0 0 101   0  0.000000e+00  0.000000e+00 -2.496656e+03  2.496656e+03 0.0 0.0 9.0
 2  1 1 2 103   0  7.118007e+02 -2.294504e+03 -6.510543e+02  2.489032e+03 0.0022 0.0 9.0
22  1 1 2   0   0 -7.118007e+02  2.294504e+03  6.305130e+02  2.483738e+03 0.0 0.0 9.0
#pdf 21 2 3.809407e-01 3.841009e-01 5000.0 1.331850e-02 1.280088e-02
</event>
<event>
4 7 1.0 5000.0 7.905138e-03 7.739137e-02
21 -1 0 0 103 101  0.000000e+00  0.000000e+00  2.721002e+03  2.721002e+03 0.0 0.0 9.0
 2 -1 0 0 101   0  0.000000e+00  0.000000e+00 -2.337473e+03  2.337473e+03 0.0 0.0 9.0
 2  1 1 2 103   0 -2.427058e+03  5.591558e+02  5.891436e+02  2.559367e+03 0.0022 0.0 9.0
22  1 1 2   0   0  2.427058e+03 -5.591558e+02 -2.056143e+02  2.499109e+03 0.0 0.0 9.0
#pdf 21 2 4.186158e-01 3.596113e-01 5000.0 8.275025e-03 1.733077e-02
</event>
<event>
4 7 1.0 5000.0 7.905138e-03 7.739137e-02
 2 -1 0 0 101   0  0.000000e+00  0.000000e+00  4.130416e+03  4.130416e+03 0.0 0.0 9.0
21 -1 0 0 103 101  0.000000e+00  0.000000e+00 -1.502195e+03  1.502195e+03 0.0 0.0 9.0
 2  1 1 2 103   0 -2.204675e+03  4.820201e+01  4.447857e+00  2.205207e+03 0.0022 0.0 9.0
22  1 1 2   0   0  2.204675e+03 -4.820201e+01  2.623773e+03  3.427405e+03 0.0 0.0 9.0
#pdf 2 21 6.354487e-01 2.311069e-01 5000.0 1.981624e-02 3.392116e-01
</event>
<event>
4 7 1.0 5000.0 7.905138e-03 7.739137e-02
21 -1 0 0 103 101  0.000000e+00  0.000000e+00  3.716298e+03  3.716298e+03 0.0 0.0 9.0
 2 -1 0 0 101   0  0.000000e+00  0.000000e+00 -1.667873e+03  1.667873e+03 0.0 0.0 9.0
 2  1 1 2 103   0 -2.331312e+02 -1.370650e+03 -1.208980e+03  1.842461e+03 0.0022 0.0 9.0
22  1 1 2   0   0  2.331312e+02  1.370650e+03  3.257404e+03  3.541711e+03 0.0 0.0 9.0
#pdf 21 2 5.717382e-01 2.565959e-01 5000.0 9.978233e-04 6.147641e-02
</event>
<event>
4 7 1.0 5000.0 7.905138e-03 7.739137e-02
 2 -1 0 0 101   0  0.000000e+00  0.000000e+00  2.047864e+03  2.047864e+03 0.0 0.0 9.0
21 -1 0 0 103 101  0.000000e+00  0.000000e+00 -3.101342e+03  3.101342e+03 0.0 0.0 9.0
22  1 1 2   0   0  1.739627e+03 -1.230885e+03  8.476012e+02  2.293427e+03 0.0 0.0 9.0
 2  1 1 2 103   0 -1.739627e+03  1.230885e+03 -1.901078e+03  2.855780e+03 0.0022 0.0 9.0
#pdf 2 21 3.150561e-01 4.771295e-01 5000.0 2.310517e-01 8.398868e-02
</event>
<event>
4 7 1.0 5000.0 7.905138e-03 7.739137e-02
 2 -1 0 0 101   0  0.000000e+00  0.000000e+00  2.424427e+03  2.424427e+03 0.0 0.0 9.0
21 -1 0 0 103 101  0.000000e+00  0.000000e+00 -2.653160e+03  2.653160e+03 0.0 0.0 9.0
 2  1 1 2 103   0  1.072064e+03  1.224654e+03  1.832679e+03  2.451083e+03 0.0022 0.0 9.0
22  1 1 2   0   0 -1.072064e+03 -1.224654e+03 -2.061413e+03  2.626504e+03 0.0 0.0 9.0
#pdf 2 21 3.729887e-01 4.081785e-01 5000.0 1.679989e-01 1.353759e-01
</event>
<event>
4 7 1.0 5000.0 7.905138e-03 7.739137e-02
 2 -1 0 0 101   0  0.000000e+00  0.000000e+00  2.231626e+03  2.231626e+03 0.0 0.0 9.0
21 -1 0 0 103 101  0.000000e+00  0.000000e+00 -3.455884e+03  3.455884e+03 0.0 0.0 9.0
 2  1 1 2 103   0 -2.966927e+02  2.290199e+03  9.673640e+02  2.503763e+03 0.0022 0.0 9.0
22  1 1 2   0   0  2.966927e+02 -2.290199e+03 -2.191622e+03  3.183747e+03 0.0 0.0 9.0
#pdf 2 21 3.433270e-01 5.316745e-01 5000.0 1.988825e-01 5.436376e-02
</event>
<event>
4 7 1.0 5000.0 7.905138e-03 7.739137e-02
 2 -1 0 0 101   0  0.000000e+00  0.000000e+00  2.780353e+03  2.780353e+03 0.0 0.0 9.0
21 -1 0 0 103 101  0.000000e+00  0.000000e+00 -2.286378e+03  2.286378e+03 0.0 0.0 9.0
22  1 1 2   0   0  1.728098e+03 -1.089581e+03  1.731704e+03  2.678116e+03 0.0 0.0 9.0
 2  1 1 2 103   0 -1.728098e+03  1.089581e+03 -1.237729e+03  2.388615e+03 0.0022 0.0 9.0
#pdf 2 21 4.277466e-01 3.517505e-01 5000.0 1.191150e-01 1.898014e-01
</event>
<event>
4 7 1.0 5000.0 7.905138e-03 7.739137e-02
21 -1 0 0 103 101  0.000000e+00  0.000000e+00  2.393146e+03  2.393146e+03 0.0 0.0 9.0
 2 -1 0 0 101   0  0.000000e+00  0.000000e+00 -2.578237e+03  2.578237e+03 0.0 0.0 9.0
22  1 1 2   0   0  9.521195e+02  2.285340e+03 -2.946460e+02  2.493216e+03 0.0 0.0 9.0
 2  1 1 2 103   0 -9.521195e+02 -2.285340e+03  1.095548e+02  2.478167e+03 0.0022 0.0 9.0
#pdf 21 2 3.681763e-01 3.966518e-01 5000.0 1.558749e-02 1.093020e-02
</event>
<event>
4 7 1.0 5000.0 7.905138e-03 7.739137e-02
 2 -1 0 0 101   0  0.000000e+00  0.000000e+00  2.898892e+03  2.898892e+03 0.0 0.0 9.0
21 -1 0 0 103 101  0.000000e+00  0.000000e+00 -2.146377e+03  2.146377e+03 0.0 0.0 9.0
22  1 1 2   0   0 -2.208065e+03 -1.109322e+03  7.206520e+02  2.574002e+03 0.0 0.0 9.0
 2  1 1 2 103   0  2.208065e+03  1.109322e+03  3.186258e+01  2.471267e+03 0.0022 0.0 9.0
#pdf 2 21 4.459834e-01 3.302119e-01 5000.0 1.051680e-01 2.134834e-01
</event>
<event>
4 7 1.0 5000.0 7.905138e-03 7.739137e-02
21 -1 0 0 103 101  0.000000e+00  0.000000e+00  1.763176e+03  1.763176e+03 0.0 0.0 9.0
 2 -1 0 0 101   0  0.000000e+00  0.000000e+00 -3.293826e+03  3.293826e+03 0.0 0.0 9.0
 2  1 1 2 103   0 -1.525960e+03 -1.324801e+03  6.122849e+02  2.111527e+03 0.0022 0.0 9.0
22  1 1 2   0   0  1.525960e+03  1.324801e+03 -2.142935e+03  2.945475e+03 0.0 0.0 9.0
#pdf 21 2 2.712578e-01 5.067424e-01 5000.0 5.124665e-02 2.566989e-03
</event>
<event>
4 7 1.0 5000.0 7.905138e-03 7.739137e-02
 2 -1 0 0 101   0  0.000000e+00  0.000000e+00  2.241273e+03  2.241273e+03 0.0 0.0 9.0
21 -1 0 0 103 101  0.000000e+00  0.000000e+00 -2.939939e+03  2.939939e+03 0.0 0.0 9.0
22  1 1 2   0   0  1.960617e+03  1.643663e+03 -5.599618e+02  2.619008e+03 0.0 0.0 9.0
 2  1 1 2 103   0 -1.960617e+03 -1.643663e+03 -1.387044e+02  2.562203e+03 0.0022 0.0 9.0
#pdf 2 21 3.448112e-01 4.522983e-01 5000.0 1.972651e-01 1.006212e-01
</event>
<event>
4 7 1.0 5000.0 7.905138e-03 7.739137e-02
21 -1 0 0 103 101  0.000000e+00  0.000000e+00  2.088066e+03  2.088066e+03 0.0 0.0 9.0
 2 -1 0 0 101   0  0.000000e+00  0.000000e+00 -2.595194e+03  2.595194e+03 0.0 0.0 9.0
 2  1 1 2 103   0  1.877739e+03  1.259756e+03  3.029249e+02  2.281370e+03 0.0022 0.0 9.0
22  1 1 2   0   0 -1.877739e+03 -1.259756e+03 -8.100528e+02  2.401890e+03 0.0 0.0 9.0
#pdf 21 2 3.212409e-01 3.992606e-01 5000.0 2.776766e-02 1.057769e-02
</event>
<event>
4 7 1.0 5000.0 7.905138e-03 7.739137e-02
21 -1 0 0 103 101  0.000000e+00  0.000000e+00  2.307128e+03  2.307128e+03 0.0 0.0 9.0
 2 -1 0 0 101   0  0.000000e+00  0.000000e+00 -2.766135e+03  2.766135e+03 0.0 0.0 9.0
 2  1 1 2 103   0  9.349312e+02 -1.689263e+03 -1.865360e+03  2.684637e+03 0.0022 0.0 9.0
22  1 1 2   0   0 -9.349312e+02  1.689263e+03  1.406353e+03  2.388626e+03 0.0 0.0 9.0
#pdf 21 2 3.549428e-01 4.255592e-01 5000.0 1.835744e-02 7.571553e-03
</event>
<event>
4 7 1.0 5000.0 7.905138e-03 7.739137e-02
 2 -1 0 0 101   0  0.000000e+00  0.000000e+00  1.892405e+03  1.892405e+03 0.0 0.0 9.0
21 -1 0 0 103 101  0.000000e+00  0.000000e+00 -3.281512e+03  3.281512e+03 0.0 0.0 9.0
 2  1 1 2 103   0 -1.096865e+03  2.129124e+03  1.991425e+01  2.395136e+03 0.0022 0.0 9.0
22  1 1 2   0   0  1.096865e+03 -2.129124e+03 -1.409021e+03  2.778781e+03 0.0 0.0 9.0
#pdf 2 21 2.911393e-01 5.048479e-01 5000.0 2.601682e-01 6.779680e-02
</event>
<event>
4 7 1.0 5000.0 7.905138e-03 7.739137e-02
21 -1 0 0 103 101  0.000000e+00  0.000000e+00  1.557999e+03  1.557999e+03 0.0 0.0 9.0
 2 -1 0 0 101   0  0.000000e+00  0.000000e+00 -3.764521e+03  3.764521e+03 0.0 0.0 9.0
22  1 1 2   0   0  4.038623e+01 -1.971062e+03  4.423725e+02  2.020497e+03 0.0 0.0 9.0
 2  1 1 2 103   0 -4.038623e+01  1.971062e+03 -2.648894e+03  3.302023e+03 0.0022 0.0 9.0
#pdf 21 2 2.396922e-01 5.791570e-01 5000.0 7.590910e-02 8.902668e-04
</event>
<event>
4 7 1.0 5000.0 7.905138e-03 7.739137e-02
21 -1 0 0 103 101  0.000000e+00  0.000000e+00  2.211547e+03  2.211547e+03 0.0 0.0 9.0
 2 -1 0 0 101   0  0.000000e+00  0.000000e+00 -2.696361e+03  2.696361e+03 0.0 0.0 9.0
22  1 1 2   0   0 -1.589659e+03  2.271275e+02 -2.091158e+03  2.636578e+03 0.0 0.0 9.0
 2  1 1 2 103   0  1.589659e+03 -2.271275e+02  1.606343e+03  2.271330e+03 0.0022 0.0 9.0
#pdf 21 2 3.402380e-01 4.148248e-01 5000.0 2.199868e-02 8.684016e-03
</event>
<event>
4 7 1.0 5000.0 7.905138e-03 7.739137e-02
 2 -1 0 0 101   0  0.000000e+00  0.000000e+00  1.634109e+03  1.634109e+03 0.0 0.0 9.0
21 -1 0 0 103 101  0.000000e+00  0.000000e+00 -2.858422e+03  2.858422e+03 0.0 0.0 9.0
 2  1 1 2 103   0 -2.065087e+03 -6.092205e+02 -4.170540e+02  2.193096e+03 0.0022 0.0 9.0
22  1 1 2   0   0  2.065087e+03  6.092205e+02 -8.072582e+02  2.299435e+03 0.0 0.0 9.0
#pdf 2 21 2.514014e-01 4.397572e-01 5000.0 3.117190e-01 1.098190e-01
</event>
<event>
4 7 1.0 5000.0 7.905138e-03 7.739137e-02
21 -1 0 0 103 101  0.000000e+00  0.000000e+00  1.735686e+03  1.735686e+03 0.0 0.0 9.0
 2 -1 0 0 101   0  0.000000e+00  0.000000e+00 -3.487638e+03  3.487638e+03 0.0 0.0 9.0
22  1 1 2   0   0  1.706489e+03 -1.026119e+03  6.580221e+02  2.097145e+03 0.0 0.0 9.0
 2  1 1 2 103   0 -1.706489e+03  1.026119e+03 -2.409974e+03  3.126179e+03 0.0022 0.0 9.0
#pdf 21 2 2.670286e-01 5.365597e-01 5000.0 5.398561e-02 1.681960e-03
</event>
<event>
4 7 1.0 5000.0 7.905138e-03 7.739137e-02
 2 -1 0 0 101   0  0.000000e+00  0.000000e+00  2.438727e+03  2.438727e+03 0.0 0.0 9.0
21 -1 0 0 103 101  0.000000e+00  0.000000e+00 -2.535103e+03  2.535103e+03 0.0 0.0 9.0
 2  1 1 2 103   0  2.718201e+02 -1.910621e+03 -1.616304e+03  2.517300e+03 0.0022 0.0 9.0
22  1 1 2   0   0 -2.718201e+02  1.910621e+03  1.519929e+03  2.456530e+03 0.0 0.0 9.0
#pdf 2 21 3.751888e-01 3.900158e-01 5000.0 1.658371e-01 1.516817e-01
</event>
<event>
4 7 1.0 5000.0 7.905138e-03 7.739137e-02
 2 -1 0 0 101   0  0.000000e+00  0.000000e+00  2.065514e+03  2.065514e+03 0.0 0.0 9.0
21 -1 0 0 103 101  0.000000e+00  0.000000e+00 -2.904410e+03  2.904410e+03 0.0 0.0 9.0
22  1 1 2   0   0 -6.942845e+02 -1.176626e+03 -2.481927e+03  2.833098e+03 0.0 0.0 9.0
 2  1 1 2 103   0  6.942845e+02  1.176626e+03  1.643031e+03  2.136827e+03 0.0022 0.0 9.0
#pdf 2 21 3.177714e-01 4.468324e-01 5000.0 2.278557e-01 1.045459e-01
</event>
<event>
4 7 1.0 5000.0 7.905138e-03 7.739137e-02
 2 -1 0 0 101   0  0.000000e+00  0.000000e+00  3.525926e+03  3.525926e+03 0.0 0.0 9.0
21 -1 0 0 103 101  0.000000e+00  0.000000e+00 -1.378426e+03  1.378426e+03 0.0 0.0 9.0
 2  1 1 2 103   0 -5.152559e+02  1.446800e+03 -6.854872e+02  1.681848e+03 0.0022 0.0 9.0
22  1 1 2   0   0  5.152559e+02 -1.446800e+03  2.832987e+03  3.222504e+03 0.0 0.0 9.0
#pdf 2 21 5.424501e-01 2.120656e-01 5000.0 4.953851e-02 3.653395e-01
</event>
<event>
4 7 1.0 5000.0 7.905138e-03 7.739137e-02
 2 -1 0 0 101   0  0.000000e+00  0.000000e+00  3.341163e+03  3.341163e+03 0.0 0.0 9.0
21 -1 0 0 103 101  0.000000e+00  0.000000e+00 -1.871916e+03  1.871916e+03 0.0 0.0 9.0
 2  1 1 2 103   0 -2.376829e+03  2.416919e+02 -3.597004e+01  2.389357e+03 0.0022 0.0 9.0
22  1 1 2   0   0  2.376829e+03 -2.416919e+02  1.505216e+03  2.823722e+03 0.0 0.0 9.0
#pdf 2 21 5.140250e-01 2.879871e-01 5000.0 6.296059e-02 2.641325e-01
</event>
<event>
4 7 1.0 5000.0 7.905138e-03 7.739137e-02
21 -1 0 0 103 101  0.000000e+00  0.000000e+00  4.148634e+03  4.148634e+03 0.0 0.0 9.0
 2 -1 0 0 101   0  0.000000e+00  0.000000e+00 -1.506552e+03  1.506552e+03 0.0 0.0 9.0
22  1 1 2   0   0 -1.428232e+02  2.225664e+03  4.335587e+01  2.230663e+03 0.0 0.0 9.0
 2  1 1 2 103   0  1.428232e+02 -2.225664e+03  2.598726e+03  3.424523e+03 0.0022 0.0 9.0
#pdf 21 2 6.382514e-01 2.317773e-01 5000.0 3.401562e-04 8.375866e-02
</event>
<event>
4 7 1.0 5000.0 7.905138e-03 7.739137e-02
 2 -1 0 0 101   0  0.000000e+00  0.000000e+00  3.278756e+03  3.278756e+03 0.0 0.0 9.0
21 -1 0 0 103 101  0.000000e+00  0.000000e+00 -1.958242e+03  1.958242e+03 0.0 0.0 9.0
 2  1 1 2 103   0 -4.056938e+02  1.693390e+03 -1.241980e+03  2.138849e+03 0.0022 0.0 9.0
22  1 1 2   0   0  4.056938e+02 -1.693390e+03  2.562494e+03  3.098150e+03 0.0 0.0 9.0
#pdf 2 21 5.044240e-01 3.012681e-01 5000.0 6.802636e-02 2.476460e-01
</event>
<event>
4 7 1.0 5000.0 7.905138e-03 7.739137e-02
 2 -1 0 0 101   0  0.000000e+00  0.000000e+00  5.319780e+03  5.319780e+03 0.0 0.0 9.0
21 -1 0 0 103 101  0.000000e+00  0.000000e+00 -1.193567e+03  1.193567e+03 0.0 0.0 9.0
22  1 1 2   0   0 -3.585819e+02 -2.204467e+03  5.552023e+02  2.301414e+03 0.0 0.0 9.0
 2  1 1 2 103   0  3.585819e+02  2.204467e+03  3.571011e+03  4.211933e+03 0.0022 0.0 9.0
#pdf 2 21 8.184277e-01 1.836256e-01 5000.0 1.143870e-03 4.044911e-01
</event>
<event>
4 7 1.0 5000.0 7.905138e-03 7.739137e-02
21 -1 0 0 103 101  0.000000e+00  0.000000e+00  2.516482e+03  2.516482e+03 0.0 0.0 9.0
 2 -1 0 0 101   0  0.000000e+00  0.000000e+00 -2.374520e+03  2.374520e+03 0.0 0.0 9.0
 2  1 1 2 103   0 -5.774815e+02  1.495430e+03  1.917197e+03  2.499088e+03 0.0022 0.0 9.0
22  1 1 2   0   0  5.774815e+02 -1.495430e+03 -1.775234e+03  2.391914e+03 0.0 0.0 9.0
#pdf 21 2 3.871511e-01 3.653108e-01 5000.0 1.231816e-02 1.615821e-02
</event>
<event>
4 7 1.0 5000.0 7.905138e-03 7.739137e-02
21 -1 0 0 103 101  0.000000e+00  0.000000e+00  2.848805e+03  2.848805e+03 0.0 0.0 9.0
 2 -1 0 0 101   0  0.000000e+00  0.000000e+00 -2.170900e+03  2.170900e+03 0.0 0.0 9.0
22  1 1 2   0   0  3.661546e+02  1.560522e+03 -1.579987e+03  2.250702e+03 0.0 0.0 9.0
 2  1 1 2 103   0 -3.661546e+02 -1.560522e+03  2.257893e+03  2.769003e+03 0.0022 0.0 9.0
#pdf 21 2 4.382777e-01 3.339846e-01 5000.0 6.432382e-03 2.375637e-02
</event>
<event>
4 7 1.0 5000.0 7.905138e-03 7.739137e-02
 2 -1 0 0 101   0  0.000000e+00  0.000000e+00  2.192663e+03  2.192663e+03 0.0 0.0 9.0
21 -1 0 0 103 101  0.000000e+00  0.000000e+00 -2.878421e+03  2.878421e+03 0.0 0.0 9.0
22  1 1 2   0   0  1.194582e+03 -1.736597e+03  1.036765e+03  2.348974e+03 0.0 0.0 9.0
 2  1 1 2 103   0 -1.194582e+03  1.736597e+03 -1.722523e+03  2.722110e+03 0.0022 0.0 9.0
#pdf 2 21 3.373328e-01 4.428340e-01 5000.0 2.054861e-01 1.075078e-01
</event>
<event>
4 7 1.0 5000.0 7.905138e-03 7.739137e-02
21 -1 0 0 103 101  0.000000e+00  0.000000e+00  1.362287e+03  1.362287e+03 0.0 0.0 9.0
 2 -1 0 0 101   0  0.000000e+00  0.000000e+00 -4.511231e+03  4.511231e+03 0.0 0.0 9.0
22  1 1 2   0   0  1.736347e+03 -1.158395e+03  9.940874e+00  2.087314e+03 0.0 0.0 9.0
 2  1 1 2 103   0 -1.736347e+03  1.158395e+03 -3.158885e+03  3.786204e+03 0.0022 0.0 9.0
#pdf 21 2 2.095826e-01 6.940356e-01 5000.0 1.111031e-01 1.219300e-04
</event>
<event>
4 7 1.0 5000.0 7.905138e-03 7.739137e-02
 2 -1 0 0 101   0  0.000000e+00  0.000000e+00  2.297519e+03  2.297519e+03 0.0 0.0 9.0
21 -1 0 0 103 101  0.000000e+00  0.000000e+00 -2.699582e+03  2.699582e+03 0.0 0.0 9.0
 2  1 1 2 103   0 -1.494544e+03 -1.457065e+03  1.161930e+03  2.388887e+03 0.0022 0.0 9.0
22  1 1 2   0   0  1.494544e+03  1.457065e+03 -1.563994e+03  2.608214e+03 0.0 0.0 9.0
#pdf 2 21 3.534644e-01 4.153204e-01 5000.0 1.879840e-01 1.292853e-01
</event>
<event>
4 7 1.0 5000.0 7.905138e-03 7.739137e-02
21 -1 0 0 103 101  0.000000e+00  0.000000e+00  2.515074e+03  2.515074e+03 0.0 0.0 9.0
 2 -1 0 0 101   0  0.000000e+00  0.000000e+00 -2.484976e+03  2.484976e+03 0.0 0.0 9.0
 2  1 1 2 103   0  5.369326e+02  9.774299e+02 -2.222453e+03  2.486556e+03 0.0022 0.0 9.0
22  1 1 2   0   0 -5.369326e+02 -9.774299e+02  2.252551e+03  2.513494e+03 0.0 0.0 9.0
#pdf 21 2 3.869345e-01 3.823040e-01 5000.0 1.235187e-02 1.309311e-02
</event>
<event>
4 7 1.0 5000.0 7.905138e-03 7.739137e-02
 2 -1 0 0 101   0  0.000000e+00  0.000000e+00  3.174242e+03  3.174242e+03 0.0 0.0 9.0
21 -1 0 0 103 101  0.000000e+00  0.000000e+00 -2.091761e+03  2.091761e+03 0.0 0.0 9.0
22  1 1 2   0   0 -1.650987e+03 -1.665878e+03 -5.492134e+02  2.408847e+03 0.0 0.0 9.0
 2  1 1 2 103   0  1.650987e+03  1.665878e+03  1.631695e+03  2.857155e+03 0.0022 0.0 9.0
#pdf 2 21 4.883449e-01 3.218093e-01 5000.0 7.714395e-02 2.231411e-01
</event>
<event>
4 7 1.0 5000.0 7.905138e-03 7.739137e-02
21 -1 0 0 103 101  0.000000e+00  0.000000e+00  2.627060e+03  2.627060e+03 0.0 0.0 9.0
 2 -1 0 0 101   0  0.000000e+00  0.000000e+00 -2.369173e+03  2.369173e+03 0.0 0.0 9.0
 2  1 1 2 103   0 -1.165022e+03 -1.881006e+03  1.283086e+03  2.557689e+03 0.0022 0.0 9.0
22  1 1 2   0   0  1.165022e+03  1.881006e+03 -1.025200e+03  2.438544e+03 0.0 0.0 9.0
#pdf 21 2 4.041630e-01 3.644882e-01 5000.0 9.944134e-03 1.632381e-02
</event>
<event>
4 7 1.0 5000.0 7.905138e-03 7.739137e-02
 2 -1 0 0 101   0  0.000000e+00  0.000000e+00  3.436874e+03  3.436874e+03 0.0 0.0 9.0
21 -1 0 0 103 101  0.000000e+00  0.000000e+00 -1.824110e+03  1.824110e+03 0.0 0.0 9.0
22  1 1 2   0   0  1.854231e+03 -1.667451e+03  1.042870e+03  2.702988e+03 0.0 0.0 9.0
 2  1 1 2 103   0 -1.854231e+03  1.667451e+03  5.698938e+02  2.557996e+03 0.0022 0.0 9.0
#pdf 2 21 5.287498e-01 2.806323e-01 5000.0 5.572809e-02 2.734656e-01
</event>
<event>
4 7 1.0 5000.0 7.905138e-03 7.739137e-02
21 -1 0 0 103 101  0.000000e+00  0.000000e+00  3.711444e+03  3.711444e+03 0.0 0.0 9.0
 2 -1 0 0 101   0  0.000000e+00  0.000000e+00 -1.462321e+03  1.462321e+03 0.0 0.0 9.0
22  1 1 2   0   0  1.639844e+03  1.586623e+03  6.027142e+02  2.360026e+03 0.0 0.0 9.0
 2  1 1 2 103   0 -1.639844e+03 -1.586623e+03  1.646409e+03  2.813738e+03 0.0022 0.0 9.0
#pdf 21 2 5.709913e-01 2.249724e-01 5000.0 1.009356e-03 9.127834e-02
</event>
<event>
4 7 1.0 5000.0 7.905138e-03 7.739137e-02
 2 -1 0 0 101   0  0.000000e+00  0.000000e+00  2.747976e+03  2.747976e+03 0.0 0.0 9.0
21 -1 0 0 103 101  0.000000e+00  0.000000e+00 -2.288405e+03  2.288405e+03 0.0 0.0 9.0
22  1 1 2   0   0 -9.936821e+02 -1.638131e+03  1.854465e+03  2.666443e+03 0.0 0.0 9.0
 2  1 1 2 103   0  9.936821e+02  1.638131e+03 -1.394893e+03  2.369938e+03 0.0022 0.0 9.0
#pdf 2 21 4.227656e-01 3.520622e-01 5000.0 1.231242e-01 1.894700e-01
</event>
<event>
4 7 1.0 5000.0 7.905138e-03 7.739137e-02
 2 -1 0 0 101   0  0.000000e+00  0.000000e+00  1.997595e+03  1.997595e+03 0.0 0.0 9.0
21 -1 0 0 103 101  0.000000e+00  0.000000e+00 -2.403987e+03  2.403987e+03 0.0 0.0 9.0
 2  1 1 2 103   0  2.124905e+03  1.083450e+02  3.236806e+02  2.152145e+03 0.0022 0.0 9.0
22  1 1 2   0   0 -2.124905e+03 -1.083450e+02 -7.300725e+02  2.249437e+03 0.0 0.0 9.0
#pdf 2 21 3.073223e-01 3.698442e-01 5000.0 2.402817e-01 1.711226e-01
</event>
<event>
4 7 1.0 5000.0 7.905138e-03 7.739137e-02
21 -1 0 0 103 101  0.000000e+00  0.000000e+00  3.608673e+03  3.608673e+03 0.0 0.0 9.0
 2 -1 0 0 101   0  0.000000e+00  0.000000e+00 -1.723081e+03  1.723081e+03 0.0 0.0 9.0
 2  1 1 2 103   0 -1.017225e+03 -4.896362e+02 -1.434224e+03  1.825236e+03 0.0022 0.0 9.0
22  1 1 2   0   0  1.017225e+03  4.896362e+02  3.319815e+03  3.506517e+03 0.0 0.0 9.0
#pdf 21 2 5.551804e-01 2.650894e-01 5000.0 1.280923e-03 5.529415e-02
</event>
<event>
4 7 1.0 5000.0 7.905138e-03 7.739137e-02
21 -1 0 0 103 101  0.000000e+00  0.000000e+00  2.976776e+03  2.976776e+03 0.0 0.0 9.0
 2 -1 0 0 101   0  0.000000e+00  0.000000e+00 -2.088198e+03  2.088198e+03 0.0 0.0 9.0
22  1 1 2   0   0  2.460030e+02  1.895492e+03 -1.181769e+03  2.247218e+03 0.0 0.0 9.0
 2  1 1 2 103   0 -2.460030e+02 -1.895492e+03  2.070348e+03  2.817756e+03 0.0022 0.0 9.0
#pdf 21 2 4.579655e-01 3.212612e-01 5000.0 4.968431e-03 2.776077e-02
</event>
<event>
4 7 1.0 5000.0 7.905138e-03 7.739137e-02
 2 -1 0 0 101   0  0.000000e+00  0.000000e+00  4.469330e+03  4.469330e+03 0.0 0.0 9.0
21 -1 0 0 103 101  0.000000e+00  0.000000e+00 -1.352431e+03  1.352431e+03 0.0 0.0 9.0
 2  1 1 2 103   0  1.810852e+03 -1.045312e+03  3.089683e+03  3.730684e+03 0.0022 0.0 9.0
22  1 1 2   0   0 -1.810852e+03  1.045312e+03  2.721589e+01  2.091077e+03 0.0 0.0 9.0
#pdf 2 21 6.875892e-01 2.080663e-01 5000.0 1.056864e-02 3.709028e-01
</event>
<event>
4 7 1.0 5000.0 7.905138e-03 7.739137e-02
21 -1 0 0 103 101  0.000000e+00  0.000000e+00  4.416545e+03  4.416545e+03 0.0 0.0 9.0
 2 -1 0 0 101   0  0.000000e+00  0.000000e+00 -1.458098e+03  1.458098e+03 0.0 0.0 9.0
22  1 1 2   0   0  1.398136e+03  2.029825e+03  7.801330e+02  2.585262e+03 0.0 0.0 9.0
 2  1 1 2 103   0 -1.398136e+03 -2.029825e+03  2.178314e+03  3.289381e+03 0.0022 0.0 9.0
#pdf 21 2 6.794685e-01 2.243228e-01 5000.0 1.613344e-04 9.203919e-02
</event>
<event>
4 7 1.0 5000.0 7.905138e-03 7.739137e-02
21 -1 0 0 103 101  0.000000e+00  0.000000e+00  2.445888e+03  2.445888e+03 0.0 0.0 9.0
 2 -1 0 0 101   0  0.000000e+00  0.000000e+00 -2.611397e+03  2.611397e+03 0.0 0.0 9.0
 2  1 1 2 103   0  3.106053e+02  4.429465e+02  2.387274e+03  2.447806e+03 0.0022 0.0 9.0
22  1 1 2   0   0 -3.106053e+02 -4.429465e+02 -2.552783e+03  2.609478e+03 0.0 0.0 9.0
#pdf 21 2 3.762904e-01 4.017533e-01 5000.0 1.410928e-02 1.025104e-02
</event>
<event>
4 7 1.0 5000.0 7.905138e-03 7.739137e-02
21 -1 0 0 103 101  0.000000e+00  0.000000e+00  4.251198e+03  4.251198e+03 0.0 0.0 9.0
 2 -1 0 0 101   0  0.000000e+00  0.000000e+00 -1.470812e+03  1.470812e+03 0.0 0.0 9.0
22  1 1 2   0   0  1.000014e+03  2.102428e+02  4.001392e+03  4.129814e+03 0.0 0.0 9.0
 2  1 1 2 103   0 -1.000014e+03 -2.102428e+02 -1.221006e+03  1.592195e+03 0.0022 0.0 9.0
#pdf 21 2 6.540305e-01 2.262787e-01 5000.0 2.580876e-04 8.976940e-02
</event>
<event>
4 7 1.0 5000.0 7.905138e-03 7.739137e-02
21 -1 0 0 103 101  0.000000e+00  0.000000e+00  3.507251e+03  3.507251e+03 0.0 0.0 9.0
 2 -1 0 0 101   0  0.000000e+00  0.000000e+00 -1.722651e+03  1.722651e+03 0.0 0.0 9.0
 2  1 1 2 103   0 -6.072160e+02 -2.137208e+03 -2.262130e+02  2.233280e+03 0.0022 0.0 9.0
22  1 1 2   0   0  6.072160e+02  2.137208e+03  2.010813e+03  2.996621e+03 0.0 0.0 9.0
#pdf 21 2 5.395770e-01 2.650232e-01 5000.0 1.609608e-03 5.533942e-02
</event>
<event>
4 7 1.0 5000.0 7.905138e-03 7.739137e-02
 2 -1 0 0 101   0  0.000000e+00  0.000000e+00  3.655668e+03  3.655668e+03 0.0 0.0 9.0
21 -1 0 0 103 101  0.000000e+00  0.000000e+00 -1.779153e+03  1.779153e+03 0.0 0.0 9.0
22  1 1 2   0   0  3.163660e+02 -2.397214e+03  1.802105e+03  3.015676e+03 0.0 0.0 9.0
 2  1 1 2 103   0 -3.163660e+02  2.397214e+03  7.440979e+01  2.419144e+03 0.0022 0.0 9.0
#pdf 2 21 5.624104e-01 2.737158e-01 5000.0 4.145050e-02 2.823597e-01
</event>
<event>
4 7 1.0 5000.0 7.905138e-03 7.739137e-02
21 -1 0 0 103 101  0.000000e+00  0.000000e+00  3.012432e+03  3.012432e+03 0.0 0.0 9.0
 2 -1 0 0 101   0  0.000000e+00  0.000000e+00 -2.099091e+03  2.099091e+03 0.0 0.0 9.0
 2  1 1 2 103   0 -2.832460e+02  1.702500e+03  2.315418e+03  2.887888e+03 0.0022 0.0 9.0
22  1 1 2   0   0  2.832460e+02 -1.702500e+03 -1.402077e+03  2.223635e+03 0.0 0.0 9.0
#pdf 21 2 4.634511e-01 3.229370e-01 5000.0 4.619073e-03 2.719725e-02
</event>
<event>
4 7 1.0 5000.0 7.905138e-03 7.739137e-02
 2 -1 0 0 101   0  0.000000e+00  0.000000e+00  2.589435e+03  2.589435e+03 0.0 0.0 9.0
21 -1 0 0 103 101  0.000000e+00  0.000000e+00 -2.347215e+03  2.347215e+03 0.0 0.0 9.0
22  1 1 2   0   0 -5.626411e+02  1.274281e+03  2.157673e+03  2.568251e+03 0.0 0.0 9.0
 2  1 1 2 103   0  5.626411e+02 -1.274281e+03 -1.915453e+03  2.368400e+03 0.0022 0.0 9.0
#pdf 2 21 3.983747e-01 3.611100e-01 5000.0 1.440360e-01 1.800021e-01
</event>
<event>
4 7 1.0 5000.0 7.905138e-03 7.739137e-02
 2 -1 0 0 101   0  0.000000e+00  0.000000e+00  1.697978e+03  1.697978e+03 0.0 0.0 9.0
21 -1 0 0 103 101  0.000000e+00  0.000000e+00 -3.301113e+03  3.301113e+03 0.0 0.0 9.0
 2  1 1 2 103   0  5.395205e+02  2.265709e+03 -1.250355e+03  2.643465e+03 0.0022 0.0 9.0
22  1 1 2   0   0 -5.395205e+02 -2.265709e+03 -3.527802e+02  2.355626e+03 0.0 0.0 9.0
#pdf 2 21 2.612274e-01 5.078635e-01 5000.0 2.986863e-01 6.617966e-02
</event>
<event>
4 7 1.0 5000.0 7.905138e-03 7.739137e-02
21 -1 0 0 103 101  0.000000e+00  0.000000e+00  1.544064e+03  1.544064e+03 0.0 0.0 9.0
 2 -1 0 0 101   0  0.000000e+00  0.000000e+00 -4.180023e+03  4.180023e+03 0.0 0.0 9.0
22  1 1 2   0   0 -7.995321e+02  4.366672e+02 -3.989683e+03  4.092371e+03 0.0 0.0 9.0
 2  1 1 2 103   0  7.995321e+02 -4.366672e+02  1.353724e+03  1.631716e+03 0.0022 0.0 9.0
#pdf 21 2 2.375483e-01 6.430805e-01 5000.0 7.796557e-02 3.128290e-04
</event>
<event>
4 7 1.0 5000.0 7.905138e-03 7.739137e-02
 2 -1 0 0 101   0  0.000000e+00  0.000000e+00  4.083663e+03  4.083663e+03 0.0 0.0 9.0
21 -1 0 0 103 101  0.000000e+00  0.000000e+00 -1.453591e+03  1.453591e+03 0.0 0.0 9.0
 2  1 1 2 103   0  4.849449e+02  8.461105e+02 -1.222117e+03  1.563536e+03 0.0022 0.0 9.0
22  1 1 2   0   0 -4.849449e+02 -8.461105e+02  3.852190e+03  3.973718e+03 0.0 0.0 9.0
#pdf 2 21 6.282559e-01 2.236294e-01 5000.0 2.145292e-02 3.494438e-01
</event>
<event>
4 7 1.0 5000.0 7.905138e-03 7.739137e-02
 2 -1 0 0 101   0  0.000000e+00  0.000000e+00  3.616247e+03  3.616247e+03 0.0 0.0 9.0
21 -1 0 0 103 101  0.000000e+00  0.000000e+00 -1.780619e+03  1.780619e+03 0.0 0.0 9.0
 2  1 1 2 103   0  5.680400e+02 -1.806356e+03  2.714165e+03  3.309423e+03 0.0022 0.0 9.0
22  1 1 2   0   0 -5.680400e+02  1.806356e+03 -8.785369e+02  2.087443e+03 0.0 0.0 9.0
#pdf 2 21 5.563457e-01 2.739414e-01 5000.0 4.379796e-02 2.820676e-01
</event>
<event>
4 7 1.0 5000.0 7.905138e-03 7.739137e-02
 2 -1 0 0 101   0  0.000000e+00  0.000000e+00  1.364670e+03  1.364670e+03 0.0 0.0 9.0
21 -1 0 0 103 101  0.000000e+00  0.000000e+00 -4.600698e+03  4.600698e+03 0.0 0.0 9.0
22  1 1 2   0   0 -1.451720e+02  1.189394e+03 -4.237556e+03  4.403705e+03 0.0 0.0 9.0
 2  1 1 2 103   0  1.451720e+02 -1.189394e+03  1.001528e+03  1.561663e+03 0.0022 0.0 9.0
#pdf 2 21 2.099492e-01 7.077997e-01 5000.0 3.682792e-01 8.037033e-03
</event>
<event>
4 7 1.0 5000.0 7.905138e-03 7.739137e-02
 2 -1 0 0 101   0  0.000000e+00  0.000000e+00  1.439878e+03  1.439878e+03 0.0 0.0 9.0
21 -1 0 0 103 101  0.000000e+00  0.000000e+00 -4.654204e+03  4.654204e+03 0.0 0.0 9.0
22  1 1 2   0   0  1.228936e+03  9.873895e+02 -4.024052e+03  4.321830e+03 0.0 0.0 9.0
 2  1 1 2 103   0 -1.228936e+03 -9.873895e+02  8.097254e+02  1.772252e+03 0.0022 0.0 9.0
#pdf 2 21 2.215197e-01 7.160314e-01 5000.0 3.523305e-01 7.150900e-03
</event>
<event>
4 7 1.0 5000.0 7.905138e-03 7.739137e-02
 2 -1 0 0 101   0  0.000000e+00  0.000000e+00  2.840364e+03  2.840364e+03 0.0 0.0 9.0
21 -1 0 0 103 101  0.000000e+00  0.000000e+00 -2.134068e+03  2.134068e+03 0.0 0.0 9.0
22  1 1 2   0   0  2.273642e+03 -1.326168e+02 -5.915659e+02  2.353080e+03 0.0 0.0 9.0
 2  1 1 2 103   0 -2.273642e+03  1.326168e+02  1.297862e+03  2.621351e+03 0.0022 0.0 9.0
#pdf 2 21 4.369791e-01 3.283181e-01 5000.0 1.119277e-01 2.156403e-01
</event>
<event>
4 7 1.0 5000.0 7.905138e-03 7.739137e-02
21 -1 0 0 103 101  0.000000e+00  0.000000e+00  3.899630e+03  3.899630e+03 0.0 0.0 9.0
 2 -1 0 0 101   0  0.000000e+00  0.000000e+00 -1.631259e+03  1.631259e+03 0.0 0.0 9.0
22  1 1 2   0   0 -1.358148e+03 -2.011182e+03  3.809841e+02  2.456536e+03 0.0 0.0 9.0
 2  1 1 2 103   0  1.358148e+03  2.011182e+03  1.887387e+03  3.074353e+03 0.0022 0.0 9.0
#pdf 21 2 5.999430e-01 2.509629e-01 5000.0 6.424536e-04 6.594892e-02
</event>
<event>
4 7 1.0 5000.0 7.905138e-03 7.739137e-02
21 -1 0 0 103 101  0.000000e+00  0.000000e+00  3.762096e+03  3.762096e+03 0.0 0.0 9.0
 2 -1 0 0 101   0  0.000000e+00  0.000000e+00 -1.819871e+03  1.819871e+03 0.0 0.0 9.0
 2  1 1 2 103   0  2.356008e+03 -1.094463e+03  6.373585e+02  2.674855e+03 0.0022 0.0 9.0
22  1 1 2   0   0 -2.356008e+03  1.094463e+03  1.304866e+03  2.907112e+03 0.0 0.0 9.0
#pdf 21 2 5.787839e-01 2.799802e-01 5000.0 8.953939e-04 4.603605e-02
</event>
<event>
4 7 1.0 5000.0 7.905138e-03 7.739137e-02
21 -1 0 0 103 101  0.000000e+00  0.000000e+00  1.633754e+03  1.633754e+03 0.0 0.0 9.0
 2 -1 0 0 101   0  0.000000e+00  0.000000e+00 -3.738749e+03  3.738749e+03 0.0 0.0 9.0
22  1 1 2   0   0 -9.290072e+02 -9.277448e+02  1.223369e+03  1.794546e+03 0.0 0.0 9.0
 2  1 1 2 103   0  9.290072e+02  9.277448e+02 -3.328364e+03  3.577957e+03 0.0022 0.0 9.0
#pdf 21 2 2.513467e-01 5.751922e-01 5000.0 6.563663e-02 9.462313e-04
</event>
<event>
4 7 1.0 5000.0 7.905138e-03 7.739137e-02
 2 -1 0 0 101   0  0.000000e+00  0.000000e+00  1.849923e+03  1.849923e+03 0.0 0.0 9.0
21 -1 0 0 103 101  0.000000e+00  0.000000e+00 -3.364916e+03  3.364916e+03 0.0 0.0 9.0
22  1 1 2   0   0 -7.978555e+02 -2.030048e+03 -2.023361e+03  2.975173e+03 0.0 0.0 9.0
 2  1 1 2 103   0  7.978555e+02  2.030048e+03  5.083679e+02  2.239666e+03 0.0022 0.0 9.0
#pdf 2 21 2.846036e-01 5.176795e-01 5000.0 2.684143e-01 6.110483e-02
</event>
<event>
4 7 1.0 5000.0 7.905138e-03 7.739137e-02
21 -1 0 0 103 101  0.000000e+00  0.000000e+00  2.834066e+03  2.834066e+03 0.0 0.0 9.0
 2 -1 0 0 101   0  0.000000e+00  0.000000e+00 -2.103032e+03  2.103032e+03 0.0 0.0 9.0
 2  1 1 2 103   0 -2.684130e+02  1.266231e+03  2.458551e+03  2.778463e+03 0.0022 0.0 9.0
22  1 1 2   0   0  2.684130e+02 -1.266231e+03 -1.727517e+03  2.158635e+03 0.0 0.0 9.0
#pdf 21 2 4.360101e-01 3.235434e-01 5000.0 6.622495e-03 2.699626e-02
</event>
<event>
4 7 1.0 5000.0 7.905138e-03 7.739137e-02
 2 -1 0 0 101   0  0.000000e+00  0.000000e+00  1.860193e+03  1.860193e+03 0.0 0.0 9.0
21 -1 0 0 103 101  0.000000e+00  0.000000e+00 -3.168934e+03  3.168934e+03 0.0 0.0 9.0
 2  1 1 2 103   0  2.293838e+03 -7.956641e+02 -6.467331e+02  2.512576e+03 0.0022 0.0 9.0
22  1 1 2   0   0 -2.293838e+03  7.956641e+02 -6.620074e+02  2.516551e+03 0.0 0.0 9.0
#pdf 2 21 2.861835e-01 4.875282e-01 5000.0 2.664120e-01 7.762875e-02
</event>
<event>
4 7 1.0 5000.0 7.905138e-03 7.739137e-02
 2 -1 0 0 101   0  0.000000e+00  0.000000e+00  1.400373e+03  1.400373e+03 0.0 0.0 9.0
21 -1 0 0 103 101  0.000000e+00  0.000000e+00 -4.598051e+03  4.598051e+03 0.0 0.0 9.0
 2  1 1 2 103   0  5.984180e+02  1.282512e+03  8.905705e+02  1.672142e+03 0.0022 0.0 9.0
22  1 1 2   0   0 -5.984180e+02 -1.282512e+03 -4.088249e+03  4.326282e+03 0.0 0.0 9.0
#pdf 2 21 2.154420e-01 7.073925e-01 5000.0 3.606744e-01 8.082871e-03
</event>
<event>
4 7 1.0 5000.0 7.905138e-03 7.739137e-02
21 -1 0 0 103 101  0.000000e+00  0.000000e+00  2.376103e+03  2.376103e+03 0.0 0.0 9.0
 2 -1 0 0 101   0  0.000000e+00  0.000000e+00 -2.559503e+03  2.559503e+03 0.0 0.0 9.0
 2  1 1 2 103   0  2.187797e+03 -3.120170e+02 -1.186912e+03  2.508499e+03 0.0022 0.0 9.0
22  1 1 2   0   0 -2.187797e+03  3.120170e+02  1.003512e+03  2.427106e+03 0.0 0.0 9.0
#pdf 21 2 3.655543e-01 3.937697e-01 5000.0 1.610936e-02 1.133321e-02
</event>
<event>
4 7 1.0 5000.0 7.905138e-03 7.739137e-02
21 -1 0 0 103 101  0.000000e+00  0.000000e+00  2.414470e+03  2.414470e+03 0.0 0.0 9.0
 2 -1 0 0 101   0  0.000000e+00  0.000000e+00 -2.484278e+03  2.484278e+03 0.0 0.0 9.0
 2  1 1 2 103   0  1.543514e+03  5.778928e+02  1.776860e+03  2.423557e+03 0.0022 0.0 9.0
22  1 1 2   0   0 -1.543514e+03 -5.778928e+02 -1.846668e+03  2.475192e+03 0.0 0.0 9.0
#pdf 21 2 3.714570e-01 3.821966e-01 5000.0 1.496445e-02 1.311074e-02
</event>
<event>
4 7 1.0 5000.0 7.905138e-03 7.739137e-02
 2 -1 0 0 101   0  0.000000e+00  0.000000e+00  3.162241e+03  3.162241e+03 0.0 0.0 9.0
21 -1 0 0 103 101  0.000000e+00  0.000000e+00 -1.916486e+03  1.916486e+03 0.0 0.0 9.0
22  1 1 2   0   0 -1.254909e+03  8.870608e+02 -1.360933e+03  2.052757e+03 0.0 0.0 9.0
 2  1 1 2 103   0  1.254909e+03 -8.870608e+02  2.606688e+03  3.025970e+03 0.0022 0.0 9.0
#pdf 2 21 4.864987e-01 2.948440e-01 5000.0 7.824294e-02 2.555477e-01
</event>
<event>
4 7 1.0 5000.0 7.905138e-03 7.739137e-02
 2 -1 0 0 101   0  0.000000e+00  0.000000e+00  3.800963e+03  3.800963e+03 0.0 0.0 9.0
21 -1 0 0 103 101  0.000000e+00  0.000000e+00 -1.682690e+03  1.682690e+03 0.0 0.0 9.0
22  1 1 2   0   0  9.706969e+02  1.308049e+03 -1.038246e+03  1.931631e+03 0.0 0.0 9.0
 2  1 1 2 103   0 -9.706969e+02 -1.308049e+03  3.156519e+03  3.552021e+03 0.0022 0.0 9.0
#pdf 2 21 5.847635e-01 2.588753e-01 5000.0 3.355822e-02 3.017872e-01
</event>
<event>
4 7 1.0 5000.0 7.905138e-03 7.739137e-02
 2 -1 0 0 101   0  0.000000e+00  0.000000e+00  4.101082e+03  4.101082e+03 0.0 0.0 9.0
21 -1 0 0 103 101  0.000000e+00  0.000000e+00 -1.468575e+03  1.468575e+03 0.0 0.0 9.0
 2  1 1 2 103   0 -1.299091e+02  1.845699e+03  3.145729e+03  3.649533e+03 0.0022 0.0 9.0
22  1 1 2   0   0  1.299091e+02 -1.845699e+03 -5.132222e+02  1.920125e+03 0.0 0.0 9.0
#pdf 2 21 6.309358e-01 2.259347e-01 5000.0 2.083162e-02 3.462922e-01
</event>
<event>
4 7 1.0 5000.0 7.905138e-03 7.739137e-02
21 -1 0 0 103 101  0.000000e+00  0.000000e+00  2.153994e+03  2.153994e+03 0.0 0.0 9.0
 2 -1 0 0 101   0  0.000000e+00  0.000000e+00 -2.975102e+03  2.975102e+03 0.0 0.0 9.0
22  1 1 2   0   0 -6.492848e+02  2.096252e+03  8.678814e+02  2.359885e+03 0.0 0.0 9.0
 2  1 1 2 103   0  6.492848e+02 -2.096252e+03 -1.688990e+03  2.769211e+03 0.0022 0.0 9.0
#pdf 21 2 3.313837e-01 4.577080e-01 5000.0 2.452696e-02 4.985508e-03
</event>
<event>
4 7 1.0 5000.0 7.905138e-03 7.739137e-02
21 -1 0 0 103 101  0.000000e+00  0.000000e+00  2.608727e+03  2.608727e+03 0.0 0.0 9.0
 2 -1 0 0 101   0  0.000000e+00  0.000000e+00 -1.997985e+03  1.997985e+03 0.0 0.0 9.0
22  1 1 2   0   0  1.296105e+03 -1.341596e+03 -1.022569e+03  2.127302e+03 0.0 0.0 9.0
 2  1 1 2 103   0 -1.296105e+03  1.341596e+03  1.633311e+03  2.479410e+03 0.0022 0.0 9.0
#pdf 21 2 4.013427e-01 3.073823e-01 5000.0 1.030420e-02 3.294048e-02
</event>
<event>
4 7 1.0 5000.0 7.905138e-03 7.739137e-02
21 -1 0 0 103 101  0.000000e+00  0.000000e+00  1.946725e+03  1.946725e+03 0.0 0.0 9.0
 2 -1 0 0 101   0  0.000000e+00  0.000000e+00 -2.938240e+03  2.938240e+03 0.0 0.0 9.0
 2  1 1 2 103   0 -9.013991e+02 -2.142654e+03 -1.070263e+03  2.559091e+03 0.0022 0.0 9.0
22  1 1 2   0   0  9.013991e+02  2.142654e+03  7.874682e+01  2.325874e+03 0.0 0.0 9.0
#pdf 21 2 2.994961e-01 4.520370e-01 5000.0 3.624162e-02 5.373511e-03
</event>
<event>
4 7 1.0 5000.0 7.905138e-03 7.739137e-02
 2 -1 0 0 101   0  0.000000e+00  0.000000e+00  4.167215e+03  4.167215e+03 0.0 0.0 9.0
21 -1 0 0 103 101  0.000000e+00  0.000000e+00 -1.529068e+03  1.529068e+03 0.0 0.0 9.0
 2  1 1 2 103   0  1.741819e+02 -7.642669e+02 -1.388265e+03  1.594278e+03 0.0022 0.0 9.0
22  1 1 2   0   0 -1.741819e+02  7.642669e+02  4.026412e+03  4.102004e+03 0.0 0.0 9.0
#pdf 2 21 6.411100e-01 2.352412e-01 5000.0 1.859494e-02 3.335474e-01
</event>
<event>
4 7 1.0 5000.0 7.905138e-03 7.739137e-02
21 -1 0 0 103 101  0.000000e+00  0.000000e+00  2.535779e+03  2.535779e+03 0.0 0.0 9.0
 2 -1 0 0 101   0  0.000000e+00  0.000000e+00 -2.542823e+03  2.542823e+03 0.0 0.0 9.0
22  1 1 2   0   0 -1.479548e+03 -8.009372e+02 -1.905490e+03  2.541939e+03 0.0 0.0 9.0
 2  1 1 2 103   0  1.479548e+03  8.009372e+02  1.898446e+03  2.536663e+03 0.0022 0.0 9.0
#pdf 21 2 3.901199e-01 3.912035e-01 5000.0 1.186557e-02 1.170483e-02
</event>
<event>
4 7 1.0 5000.0 7.905138e-03 7.739137e-02
21 -1 0 0 103 101  0.000000e+00  0.000000e+00  1.537740e+03  1.537740e+03 0.0 0.0 9.0
 2 -1 0 0 101   0  0.000000e+00  0.000000e+00 -4.195099e+03  4.195099e+03 0.0 0.0 9.0
 2  1 1 2 103   0 -2.393841e+03 -2.927917e+02 -4.295246e+02  2.449631e+03 0.0022 0.0 9.0
22  1 1 2   0   0  2.393841e+03  2.927917e+02 -2.227835e+03  3.283207e+03 0.0 0.0 9.0
#pdf 21 2 2.365753e-01 6.453999e-01 5000.0 7.891364e-02 3.003106e-04
</event>
<event>
4 7 1.0 5000.0 7.905138e-03 7.739137e-02
 2 -1 0 0 101   0  0.000000e+00  0.000000e+00  2.202968e+03  2.202968e+03 0.0 0.0 9.0
21 -1 0 0 103 101  0.000000e+00  0.000000e+00 -2.933487e+03  2.933487e+03 0.0 0.0 9.0
22  1 1 2   0   0 -1.469684e+03  2.048940e+03 -3.906366e+01  2.521835e+03 0.0 0.0 9.0
 2  1 1 2 103   0  1.469684e+03 -2.048940e+03 -6.914546e+02  2.614620e+03 0.0022 0.0 9.0
#pdf 2 21 3.389182e-01 4.513056e-01 5000.0 2.037288e-01 1.013280e-01
</event>
<event>
4 7 1.0 5000.0 7.905138e-03 7.739137e-02
 2 -1 0 0 101   0  0.000000e+00  0.000000e+00  2.293870e+03  2.293870e+03 0.0 0.0 9.0
21 -1 0 0 103 101  0.000000e+00  0.000000e+00 -2.461128e+03  2.461128e+03 0.0 0.0 9.0
 2  1 1 2 103   0 -2.776392e+02  2.359394e+03 -4.258830e+01  2.376055e+03 0.0022 0.0 9.0
22  1 1 2   0   0  2.776392e+02 -2.359394e+03 -1.246697e+02  2.378942e+03 0.0 0.0 9.0
#pdf 2 21 3.529030e-01 3.786350e-01 5000.0 1.885781e-01 1.624808e-01
</event>
<event>
4 7 1.0 5000.0 7.905138e-03 7.739137e-02
 2 -1 0 0 101   0  0.000000e+00  0.000000e+00  4.119714e+03  4.119714e+03 0.0 0.0 9.0
21 -1 0 0 103 101  0.000000e+00  0.000000e+00 -1.507636e+03  1.507636e+03 0.0 0.0 9.0
22  1 1 2   0   0 -1.526990e+03 -5.664087e+02  3.435778e+03  3.802247e+03 0.0 0.0 9.0
 2  1 1 2 103   0  1.526990e+03  5.664087e+02 -8.237003e+02  1.825102e+03 0.0022 0.0 9.0
#pdf 2 21 6.338021e-01 2.319440e-01 5000.0 2.018230e-02 3.380638e-01
</event>
<event>
4 7 1.0 5000.0 7.905138e-03 7.739137e-02
 2 -1 0 0 101   0  0.000000e+00  0.000000e+00  3.064859e+03  3.064859e+03 0.0 0.0 9.0
21 -1 0 0 103 101  0.000000e+00  0.000000e+00 -1.986749e+03  1.986749e+03 0.0 0.0 9.0
 2  1 1 2 103   0  5.658317e+01  5.570887e+02 -1.920858e+03  2.000811e+03 0.0022 0.0 9.0
22  1 1 2   0   0 -5.658317e+01 -5.570887e+02  2.998968e+03  3.050797e+03 0.0 0.0 9.0
#pdf 2 21 4.715168e-01 3.056536e-01 5000.0 8.757053e-02 2.422989e-01
</event>
<event>
4 7 1.0 5000.0 7.905138e-03 7.739137e-02
21 -1 0 0 103 101  0.000000e+00  0.000000e+00  3.037954e+03  3.037954e+03 0.0 0.0 9.0
 2 -1 0 0 101   0  0.000000e+00  0.000000e+00 -2.102658e+03  2.102658e+03 0.0 0.0 9.0
 2  1 1 2 103   0  2.182407e+03 -1.487896e+02  1.755130e+03  2.804554e+03 0.0022 0.0 9.0
22  1 1 2   0   0 -2.182407e+03  1.487896e+02 -8.198350e+02  2.336058e+03 0.0 0.0 9.0
#pdf 21 2 4.673775e-01 3.234859e-01 5000.0 4.385120e-03 2.701526e-02
</event>
<event>
4 7 1.0 5000.0 7.905138e-03 7.739137e-02
 2 -1 0 0 101   0  0.000000e+00  0.000000e+00  2.576241e+03  2.576241e+03 0.0 0.0 9.0
21 -1 0 0 103 101  0.000000e+00  0.000000e+00 -2.388803e+03  2.388803e+03 0.0 0.0 9.0
22  1 1 2   0   0  4.688859e+02  2.052381e+02  2.522826e+03  2.574224e+03 0.0 0.0 9.0
 2  1 1 2 103   0 -4.688859e+02 -2.052381e+02 -2.335388e+03  2.390819e+03 0.0022 0.0 9.0
#pdf 2 21 3.963447e-01 3.675081e-01 5000.0 1.458718e-01 1.734729e-01
</event>
<event>
4 7 1.0 5000.0 7.905138e-03 7.739137e-02
21 -1 0 0 103 101  0.000000e+00  0.000000e+00  2.117638e+03  2.117638e+03 0.0 0.0 9.0
 2 -1 0 0 101   0  0.000000e+00  0.000000e+00 -3.010140e+03  3.010140e+03 0.0 0.0 9.0
22  1 1 2   0   0  1.763891e+03 -1.122922e+03 -1.883146e+03  2.813984e+03 0.0 0.0 9.0
 2  1 1 2 103   0 -1.763891e+03  1.122922e+03  9.906439e+02  2.313794e+03 0.0022 0.0 9.0
#pdf 21 2 3.257905e-01 4.630985e-01 5000.0 2.626457e-02 4.640623e-03
</event>
<event>
4 7 1.0 5000.0 7.905138e-03 7.739137e-02
 2 -1 0 0 101   0  0.000000e+00  0.000000e+00  4.003227e+03  4.003227e+03 0.0 0.0 9.0
21 -1 0 0 103 101  0.000000e+00  0.000000e+00 -1.578475e+03  1.578475e+03 0.0 0.0 9.0
 2  1 1 2 103   0 -1.126680e+02  1.946701e+03 -5.488880e+02  2.025739e+03 0.0022 0.0 9.0
22  1 1 2   0   0  1.126680e+02 -1.946701e+03  2.973640e+03  3.555963e+03 0.0 0.0 9.0
#pdf 2 21 6.158811e-01 2.428423e-01 5000.0 2.450161e-02 3.232347e-01
</event>
<event>
4 7 1.0 5000.0 7.905138e-03 7.739137e-02
 2 -1 0 0 101   0  0.000000e+00  0.000000e+00  3.196479e+03  3.196479e+03 0.0 0.0 9.0
21 -1 0 0 103 101  0.000000e+00  0.000000e+00 -1.950288e+03  1.950288e+03 0.0 0.0 9.0
 2  1 1 2 103   0 -1.475115e+03  6.342057e+02 -1.347579e+03  2.096223e+03 0.0022 0.0 9.0
22  1 1 2   0   0  1.475115e+03 -6.342057e+02  2.593769e+03  3.050544e+03 0.0 0.0 9.0
#pdf 2 21 4.917659e-01 3.000443e-01 5000.0 7.513599e-02 2.491478e-01
</event>
<event>
4 7 1.0 5000.0 7.905138e-03 7.739137e-02
21 -1 0 0 103 101  0.000000e+00  0.000000e+00  3.542277e+03  3.542277e+03 0.0 0.0 9.0
 2 -1 0 0 101   0  0.000000e+00  0.000000e+00 -1.763385e+03  1.763385e+03 0.0 0.0 9.0
22  1 1 2   0   0  2.035194e+03 -1.381919e+03  1.357784e+03  2.809856e+03 0.0 0.0 9.0
 2  1 1 2 103   0 -2.035194e+03  1.381919e+03  4.211067e+02  2.495806e+03 0.0022 0.0 9.0
#pdf 21 2 5.449656e-01 2.712901e-01 5000.0 1.488824e-03 5.122634e-02
</event>
<event>
4 7 1.0 5000.0 7.905138e-03 7.739137e-02
 2 -1 0 0 101   0  0.000000e+00  0.000000e+00  4.332981e+03  4.332981e+03 0.0 0.0 9.0
21 -1 0 0 103 101  0.000000e+00  0.000000e+00 -1.442163e+03  1.442163e+03 0.0 0.0 9.0
 2  1 1 2 103   0 -4.566891e+02  2.415887e+03  9.239494e+02  2.626549e+03 0.0022 0.0 9.0
22  1 1 2   0   0  4.566891e+02 -2.415887e+03  1.966869e+03  3.148595e+03 0.0 0.0 9.0
#pdf 2 21 6.666124e-01 2.218712e-01 5000.0 1.376818e-02 3.518493e-01
</event>
<event>
4 7 1.0 5000.0 7.905138e-03 7.739137e-02
 2 -1 0 0 101   0  0.000000e+00  0.000000e+00  2.190850e+03  2.190850e+03 0.0 0.0 9.0
21 -1 0 0 103 101  0.000000e+00  0.000000e+00 -2.856402e+03  2.856402e+03 0.0 0.0 9.0
 2  1 1 2 103   0  5.326586e+02  1.342463e+03  1.727769e+03  2.251914e+03 0.0022 0.0 9.0
22  1 1 2   0   0 -5.326586e+02 -1.342463e+03 -2.393321e+03  2.795338e+03 0.0 0.0 9.0
#pdf 2 21 3.370539e-01 4.394465e-01 5000.0 2.057961e-01 1.100537e-01
</event>
<event>
4 7 1.0 5000.0 7.905138e-03 7.739137e-02
 2 -1 0 0 101   0  0.000000e+00  0.000000e+00  1.633573e+03  1.633573e+03 0.0 0.0 9.0
21 -1 0 0 103 101  0.000000e+00  0.000000e+00 -3.420835e+03  3.420835e+03 0.0 0.0 9.0
22  1 1 2   0   0 -5.762226e+02  4.061405e+02  1.518579e+03  1.674236e+03 0.0 0.0 9.0
 2  1 1 2 103   0  5.762226e+02 -4.061405e+02 -3.305841e+03  3.380172e+03 0.0022 0.0 9.0
#pdf 2 21 2.513189e-01 5.262823e-01 5000.0 3.118295e-01 5.689631e-02
</event>
<event>
4 7 1.0 5000.0 7.905138e-03 7.739137e-02
 2 -1 0 0 101   0  0.000000e+00  0.000000e+00  2.377772e+03  2.377772e+03 0.0 0.0 9.0
21 -1 0 0 103 101  0.000000e+00  0.000000e+00 -2.690913e+03  2.690913e+03 0.0 0.0 9.0
22  1 1 2   0   0  2.091052e+03  5.262256e+02  1.168445e+03  2.452484e+03 0.0 0.0 9.0
 2  1 1 2 103   0 -2.091052e+03 -5.262256e+02 -1.481585e+03  2.616201e+03 0.0022 0.0 9.0
#pdf 2 21 3.658111e-01 4.139866e-01 5000.0 1.751915e-01 1.304097e-01
</event>
<event>
4 7 1.0 5000.0 7.905138e-03 7.739137e-02
 2 -1 0 0 101   0  0.000000e+00  0.000000e+00  1.872043e+03  1.872043e+03 0.0 0.0 9.0
21 -1 0 0 103 101  0.000000e+00  0.000000e+00 -3.337364e+03  3.337364e+03 0.0 0.0 9.0
 2  1 1 2 103   0 -7.234424e+01  2.490072e+03 -5.191037e+02  2.544633e+03 0.0022 0.0 9.0
22  1 1 2   0   0  7.234424e+01 -2.490072e+03 -9.462167e+02  2.664773e+03 0.0 0.0 9.0
#pdf 2 21 2.880066e-01 5.134405e-01 5000.0 2.641079e-01 6.326108e-02
</event>
<event>
4 7 1.0 5000.0 7.905138e-03 7.739137e-02
21 -1 0 0 103 101  0.000000e+00  0.000000e+00  2.375784e+03  2.375784e+03 0.0 0.0 9.0
 2 -1 0 0 101   0  0.000000e+00  0.000000e+00 -2.622125e+03  2.622125e+03 0.0 0.0 9.0
 2  1 1 2 103   0 -1.307625e+03  2.120180e+03  3.372490e+01  2.491221e+03 0.0022 0.0 9.0
22  1 1 2   0   0  1.307625e+03 -2.120180e+03 -2.800667e+02  2.506688e+03 0.0 0.0 9.0
#pdf 21 2 3.655052e-01 4.034039e-01 5000.0 1.611920e-02 1.003991e-02
</event>
<event>
4 7 1.0 5000.0 7.905138e-03 7.739137e-02
 2 -1 0 0 101   0  0.000000e+00  0.000000e+00  1.909116e+03  1.909116e+03 0.0 0.0 9.0
21 -1 0 0 103 101  0.000000e+00  0.000000e+00 -3.301700e+03  3.301700e+03 0.0 0.0 9.0
22  1 1 2   0   0  9.623235e+02 -1.037746e+03  1.455709e+03  2.030289e+03 0.0 0.0 9.0
 2  1 1 2 103   0 -9.623235e+02  1.037746e+03 -2.848293e+03  3.180528e+03 0.0022 0.0 9.0
#pdf 2 21 2.937102e-01 5.079539e-01 5000.0 2.569568e-01 6.613165e-02
</event>
<event>
4 7 1.0 5000.0 7.905138e-03 7.739137e-02
21 -1 0 0 103 101  0.000000e+00  0.000000e+00  3.698004e+03  3.698004e+03 0.0 0.0 9.0
 2 -1 0 0 101   0  0.000000e+00  0.000000e+00 -1.209765e+03  1.209765e+03 0.0 0.0 9.0
 2  1 1 2 103   0  7.502241e+02  1.966056e+03  9.966380e+02  2.328411e+03 0.0022 0.0 9.0
22  1 1 2   0   0 -7.502241e+02 -1.966056e+03  1.491601e+03  2.579357e+03 0.0 0.0 9.0
#pdf 21 2 5.689237e-01 1.861176e-01 5000.0 1.041982e-03 1.511849e-01
</event>
<event>
4 7 1.0 5000.0 7.905138e-03 7.739137e-02
 2 -1 0 0 101   0  0.000000e+00  0.000000e+00  1.821434e+03  1.821434e+03 0.0 0.0 9.0
21 -1 0 0 103 101  0.000000e+00  0.000000e+00 -3.418060e+03  3.418060e+03 0.0 0.0 9.0
 2  1 1 2 103   0 -1.841872e+03  5.149009e+02  8.842580e+02  2.107018e+03 0.0022 0.0 9.0
22  1 1 2   0   0  1.841872e+03 -5.149009e+02 -2.480884e+03  3.132475e+03 0.0 0.0 9.0
#pdf 2 21 2.802206e-01 5.258553e-01 5000.0 2.739913e-01 5.710010e-02
</event>
<event>
4 7 1.0 5000.0 7.905138e-03 7.739137e-02
21 -1 0 0 103 101  0.000000e+00  0.000000e+00  3.030246e+03  3.030246e+03 0.0 0.0 9.0
 2 -1 0 0 101   0  0.000000e+00  0.000000e+00 -1.940074e+03  1.940074e+03 0.0 0.0 9.0
 2  1 1 2 103   0  1.009365e+03 -2.159985e+03  9.300026e+01  2.386001e+03 0.0022 0.0 9.0
22  1 1 2   0   0 -1.009365e+03  2.159985e+03  9.971722e+02  2.584319e+03 0.0 0.0 9.0
#pdf 21 2 4.661917e-01 2.984729e-01 5000.0 4.454636e-03 3.671366e-02
</event>
<event>
4 7 1.0 5000.0 7.905138e-03 7.739137e-02
 2 -1 0 0 101   0  0.000000e+00  0.000000e+00  3.927073e+03  3.927073e+03 0.0 0.0 9.0
21 -1 0 0 103 101  0.000000e+00  0.000000e+00 -1.600273e+03  1.600273e+03 0.0 0.0 9.0
 2  1 1 2 103   0 -4.859997e+02 -7.491827e+02  3.745776e+03  3.850754e+03 0.0022 0.0 9.0
22  1 1 2   0   0  4.859997e+02  7.491827e+02 -1.418976e+03  1.676592e+03 0.0 0.0 9.0
#pdf 2 21 6.041651e-01 2.461959e-01 5000.0 2.766929e-02 3.187458e-01
</event>
<event>
4 7 1.0 5000.0 7.905138e-03 7.739137e-02
 2 -1 0 0 101   0  0.000000e+00  0.000000e+00  4.036969e+03  4.036969e+03 0.0 0.0 9.0
21 -1 0 0 103 101  0.000000e+00  0.000000e+00 -1.592997e+03  1.592997e+03 0.0 0.0 9.0
22  1 1 2   0   0  2.185515e+03  2.894100e+02 -1.691824e+02  2.211076e+03 0.0 0.0 9.0
 2  1 1 2 103   0 -2.185515e+03 -2.894100e+02  2.613154e+03  3.418890e+03 0.0022 0.0 9.0
#pdf 2 21 6.210721e-01 2.450765e-01 5000.0 2.318677e-02 3.202492e-01
</event>
<event>
4 7 1.0 5000.0 7.905138e-03 7.739137e-02
21 -1 0 0 103 101  0.000000e+00  0.000000e+00  2.932219e+03  2.932219e+03 0.0 0.0 9.0
 2 -1 0 0 101   0  0.000000e+00  0.000000e+00 -2.126953e+03  2.126953e+03 0.0 0.0 9.0
 2  1 1 2 103   0 -1.497080e+03 -8.948634e+02  2.213076e+03  2.817753e+03 0.0022 0.0 9.0
22  1 1 2   0   0  1.497080e+03  8.948634e+02 -1.407811e+03  2.241419e+03 0.0 0.0 9.0
#pdf 21 2 4.511106e-01 3.272236e-01 5000.0 5.438670e-03 2.580829e-02
</event>
<event>
4 7 1.0 5000.0 7.905138e-03 7.739137e-02
21 -1 0 0 103 101  0.000000e+00  0.000000e+00  3.878769e+03  3.878769e+03 0.0 0.0 9.0
 2 -1 0 0 101   0  0.000000e+00  0.000000e+00 -1.637132e+03  1.637132e+03 0.0 0.0 9.0
 2  1 1 2 103   0  1.976462e+03  1.248340e+03  9.104211e+01  2.339454e+03 0.0022 0.0 9.0
22  1 1 2   0   0 -1.976462e+03 -1.248340e+03  2.150595e+03  3.176447e+03 0.0 0.0 9.0
#pdf 21 2 5.967337e-01 2.518665e-01 5000.0 6.760259e-04 6.521535e-02
</event>
<event>
4 7 1.0 5000.0 7.905138e-03 7.739137e-02
 2 -1 0 0 101   0  0.000000e+00  0.000000e+00  1.865396e+03  1.865396e+03 0.0 0.0 9.0
21 -1 0 0 103 101  0.000000e+00  0.000000e+00 -3.397853e+03  3.397853e+03 0.0 0.0 9.0
22  1 1 2   0   0 -1.547971e+03 -1.944396e+03 -3.462232e+02  2.509335e+03 0.0 0.0 9.0
 2  1 1 2 103   0  1.547971e+03  1.944396e+03 -1.186235e+03  2.753914e+03 0.0022 0.0 9.0
#pdf 2 21 2.869839e-01 5.227467e-01 5000.0 2.653995e-01 5.859935e-02
</event>
<event>
4 7 1.0 5000.0 7.905138e-03 7.739137e-02
 2 -1 0 0 101   0  0.000000e+00  0.000000e+00  3.191271e+03  3.191271e+03 0.0 0.0 9.0
21 -1 0 0 103 101  0.000000e+00  0.000000e+00 -1.914457e+03  1.914457e+03 0.0 0.0 9.0
 2  1 1 2 103   0 -1.274607e+03  1.571081e+03  2.105089e+03  2.919644e+03 0.0022 0.0 9.0
22  1 1 2   0   0  1.274607e+03 -1.571081e+03 -8.282756e+02  2.186083e+03 0.0 0.0 9.0
#pdf 2 21 4.909647e-01 2.945318e-01 5000.0 7.560293e-02 2.559351e-01
</event>
<event>
4 7 1.0 5000.0 7.905138e-03 7.739137e-02
 2 -1 0 0 101   0  0.000000e+00  0.000000e+00  2.052814e+03  2.052814e+03 0.0 0.0 9.0
21 -1 0 0 103 101  0.000000e+00  0.000000e+00 -2.431631e+03  2.431631e+03 0.0 0.0 9.0
 2  1 1 2 103   0  1.634425e+03  8.823554e+01 -1.715572e+03  2.371143e+03 0.0022 0.0 9.0
22  1 1 2   0   0 -1.634425e+03 -8.823554e+01  1.336755e+03  2.113302e+03 0.0 0.0 9.0
#pdf 2 21 3.158176e-01 3.740971e-01 5000.0 2.301531e-01 1.669080e-01
</event>
<event>
4 7 1.0 5000.0 7.905138e-03 7.739137e-02
21 -1 0 0 103 101  0.000000e+00  0.000000e+00  3.467077e+03  3.467077e+03 0.0 0.0 9.0
 2 -1 0 0 101   0  0.000000e+00  0.000000e+00 -1.680228e+03  1.680228e+03 0.0 0.0 9.0
 2  1 1 2 103   0 -1.953455e+03  1.416972e+03  9.371469e+02  2.588830e+03 0.0022 0.0 9.0
22  1 1 2   0   0  1.953455e+03 -1.416972e+03  8.497020e+02  2.558475e+03 0.0 0.0 9.0
#pdf 21 2 5.333964e-01 2.584966e-01 5000.0 1.761752e-03 6.002833e-02
</event>
<event>
4 7 1.0 5000.0 7.905138e-03 7.739137e-02
 2 -1 0 0 101   0  0.000000e+00  0.000000e+00  2.997993e+03  2.997993e+03 0.0 0.0 9.0
21 -1 0 0 103 101  0.000000e+00  0.000000e+00 -2.179995e+03  2.179995e+03 0.0 0.0 9.0
22  1 1 2   0   0  7.739210e+02  2.435132e+03  4.924535e+02  2.602178e+03 0.0 0.0 9.0
 2  1 1 2 103   0 -7.739210e+02 -2.435132e+03  3.255437e+02  2.575810e+03 0.0022 0.0 9.0
#pdf 2 21 4.612296e-01 3.353839e-01 5000.0 9.439312e-02 2.076567e-01
</event>
<event>
4 7 1.0 5000.0 7.905138e-03 7.739137e-02
 2 -1 0 0 101   0  0.000000e+00  0.000000e+00  2.258961e+03  2.258961e+03 0.0 0.0 9.0
21 -1 0 0 103 101  0.000000e+00  0.000000e+00 -2.786199e+03  2.786199e+03 0.0 0.0 9.0
 2  1 1 2 103   0 -5.099009e+02  1.700588e+03 -2.045924e+03  2.708837e+03 0.0022 0.0 9.0
22  1 1 2   0   0  5.099009e+02 -1.700588e+03  1.518685e+03  2.336322e+03 0.0 0.0 9.0
#pdf 2 21 3.475324e-01 4.286460e-01 5000.0 1.943184e-01 1.184013e-01
</event>
<event>
4 7 1.0 5000.0 7.905138e-03 7.739137e-02
 2 -1 0 0 101   0  0.000000e+00  0.000000e+00  2.015503e+03  2.015503e+03 0.0 0.0 9.0
21 -1 0 0 103 101  0.000000e+00  0.000000e+00 -3.233050e+03  3.233050e+03 0.0 0.0 9.0
22  1 1 2   0   0  1.851677e+03  1.751842e+03 -4.686962e+02  2.591782e+03 0.0 0.0 9.0
 2  1 1 2 103   0 -1.851677e+03 -1.751842e+03 -7.488505e+02  2.656771e+03 0.0022 0.0 9.0
#pdf 2 21 3.100774e-01 4.973923e-01 5000.0 2.369715e-01 7.191398e-02
</event>
<event>
4 7 1.0 5000.0 7.905138e-03 7.739137e-02
 2 -1 0 0 101   0  0.000000e+00  0.000000e+00  2.615516e+03  2.615516e+03 0.0 0.0 9.0
21 -1 0 0 103 101  0.000000e+00  0.000000e+00 -2.353649e+03  2.353649e+03 0.0 0.0 9.0
 2  1 1 2 103   0  9.685127e+02  2.140780e+03 -6.670748e+02  2.442529e+03 0.0022 0.0 9.0
22  1 1 2   0   0 -9.685127e+02 -2.140780e+03  9.289415e+02  2.526636e+03 0.0 0.0 9.0
#pdf 2 21 4.023870e-01 3.620998e-01 5000.0 1.404493e-01 1.789831e-01
</event>
<event>
4 7 1.0 5000.0 7.905138e-03 7.739137e-02
21 -1 0 0 103 101  0.000000e+00  0.000000e+00  2.560757e+03  2.560757e+03 0.0 0.0 9.0
 2 -1 0 0 101   0  0.000000e+00  0.000000e+00 -2.513151e+03  2.513151e+03 0.0 0.0 9.0
 2  1 1 2 103   0  2.397099e+03 -7.755832e+02 -2.727866e+02  2.534171e+03 0.0022 0.0 9.0
22  1 1 2   0   0 -2.397099e+03  7.755832e+02  3.203919e+02  2.539737e+03 0.0 0.0 9.0
#pdf 21 2 3.939626e-01 3.866387e-01 5000.0 1.130578e-02 1.239803e-02
</event>
<event>
4 7 1.0 5000.0 7.905138e-03 7.739137e-02
21 -1 0 0 103 101  0.000000e+00  0.000000e+00  2.186077e+03  2.186077e+03 0.0 0.0 9.0
 2 -1 0 0 101   0  0.000000e+00  0.000000e+00 -2.837759e+03  2.837759e+03 0.0 0.0 9.0
22  1 1 2   0   0  1.291017e+02  2.444229e+03  1.392129e+02  2.451592e+03 0.0 0.0 9.0
 2  1 1 2 103   0 -1.291017e+02 -2.444229e+03 -7.908955e+02  2.572244e+03 0.0022 0.0 9.0
#pdf 21 2 3.363195e-01 4.365784e-01 5000.0 2.308313e-02 6.574453e-03
</event>
<event>
4 7 1.0 5000.0 7.905138e-03 7.739137e-02
21 -1 0 0 103 101  0.000000e+00  0.000000e+00  1.500088e+03  1.500088e+03 0.0 0.0 9.0
 2 -1 0 0 101   0  0.000000e+00  0.000000e+00 -4.127446e+03  4.127446e+03 0.0 0.0 9.0
22  1 1 2   0   0  1.896078e+03 -1.383428e+03 -3.794469e+02  2.377596e+03 0.0 0.0 9.0
 2  1 1 2 103   0 -1.896078e+03  1.383428e+03 -2.247912e+03  3.249937e+03 0.0022 0.0 9.0
#pdf 21 2 2.307827e-01 6.349917e-01 5000.0 8.480502e-02 3.596959e-04
</event>
<event>
4 7 1.0 5000.0 7.905138e-03 7.739137e-02
21 -1 0 0 103 101  0.000000e+00  0.000000e+00  2.640829e+03  2.640829e+03 0.0 0.0 9.0
 2 -1 0 0 101   0  0.000000e+00  0.000000e+00 -2.529634e+03  2.529634e+03 0.0 0.0 9.0
22  1 1 2   0   0 -2.170319e+03 -1.381115e+03  3.057921e+02  2.590612e+03 0.0 0.0 9.0
 2  1 1 2 103   0  2.170319e+03  1.381115e+03 -1.945976e+02  2.579851e+03 0.0022 0.0 9.0
#pdf 21 2 4.062814e-01 3.891745e-01 5000.0 9.681087e-03 1.200777e-02
</event>
<event>
4 7 1.0 5000.0 7.905138e-03 7.739137e-02
21 -1 0 0 103 101  0.000000e+00  0.000000e+00  3.318849e+03  3.318849e+03 0.0 0.0 9.0
 2 -1 0 0 101   0  0.000000e+00  0.000000e+00 -1.981838e+03  1.981838e+03 0.0 0.0 9.0
 2  1 1 2 103   0 -1.819104e+03  1.451233e+03 -4.455714e+02  2.369336e+03 0.0022 0.0 9.0
22  1 1 2   0   0  1.819104e+03 -1.451233e+03  1.782583e+03  2.931351e+03 0.0 0.0 9.0
#pdf 21 2 5.105922e-01 3.048981e-01 5000.0 2.433296e-03 3.395404e-02
</event>
<event>
4 7 1.0 5000.0 7.905138e-03 7.739137e-02
21 -1 0 0 103 101  0.000000e+00  0.000000e+00  3.170966e+03  3.170966e+03 0.0 0.0 9.0
 2 -1 0 0 101   0  0.000000e+00  0.000000e+00 -1.918000e+03  1.918000e+03 0.0 0.0 9.0
22  1 1 2   0   0  2.264521e+03  2.130887e+02 -3.569159e+02  2.302358e+03 0.0 0.0 9.0
 2  1 1 2 103   0 -2.264521e+03 -2.130887e+02  1.609882e+03  2.786608e+03 0.0022 0.0 9.0
#pdf 21 2 4.878410e-01 2.950769e-01 5000.0 3.328635e-03 3.829683e-02
</event>
<event>
4 7 1.0 5000.0 7.905138e-03 7.739137e-02
 2 -1 0 0 101   0  0.000000e+00  0.000000e+00  1.991804e+03  1.991804e+03 0.0 0.0 9.0
21 -1 0 0 103 101  0.000000e+00  0.000000e+00 -2.914366e+03  2.914366e+03 0.0 0.0 9.0
 2  1 1 2 103   0  1.442647e+03 -8.858009e+01  1.501364e+03  2.084027e+03 0.0022 0.0 9.0
22  1 1 2   0   0 -1.442647e+03  8.858009e+01 -2.423925e+03  2.822143e+03 0.0 0.0 9.0
#pdf 2 21 3.064314e-01 4.483639e-01 5000.0 2.413575e-01 1.034352e-01
</event>
<event>
4 7 1.0 5000.0 7.905138e-03 7.739137e-02
 2 -1 0 0 101   0  0.000000e+00  0.000000e+00  4.300872e+03  4.300872e+03 0.0 0.0 9.0
21 -1 0 0 103 101  0.000000e+00  0.000000e+00 -1.361461e+03  1.361461e+03 0.0 0.0 9.0
 2  1 1 2 103   0 -2.225246e+03  9.455891e+02  1.584397e+03  2.890705e+03 0.0022 0.0 9.0
22  1 1 2   0   0  2.225246e+03 -9.455891e+02  1.355015e+03  2.771629e+03 0.0 0.0 9.0
#pdf 2 21 6.616727e-01 2.094555e-01 5000.0 1.462766e-02 3.689669e-01
</event>
<event>
4 7 1.0 5000.0 7.905138e-03 7.739137e-02
 2 -1 0 0 101   0  0.000000e+00  0.000000e+00  1.792988e+03  1.792988e+03 0.0 0.0 9.0
21 -1 0 0 103 101  0.000000e+00  0.000000e+00 -3.426468e+03  3.426468e+03 0.0 0.0 9.0
 2  1 1 2 103   0  1.020161e+03 -2.015433e+03  2.574741e+02  2.273542e+03 0.0022 0.0 9.0
22  1 1 2   0   0 -1.020161e+03  2.015433e+03 -1.890955e+03  2.945914e+03 0.0 0.0 9.0
#pdf 2 21 2.758442e-01 5.271490e-01 5000.0 2.796089e-01 5.648414e-02
</event>
<event>
4 7 1.0 5000.0 7.905138e-03 7.739137e-02
 2 -1 0 0 101   0  0.000000e+00  0.000000e+00  2.466693e+03  2.466693e+03 0.0 0.0 9.0
21 -1 0 0 103 101  0.000000e+00  0.000000e+00 -2.528084e+03  2.528084e+03 0.0 0.0 9.0
 2  1 1 2 103   0 -1.749837e+03 -2.980001e+02 -1.787322e+03  2.518979e+03 0.0022 0.0 9.0
22  1 1 2   0   0  1.749837e+03  2.980001e+02  1.725931e+03  2.475797e+03 0.0 0.0 9.0
#pdf 2 21 3.794912e-01 3.889360e-01 5000.0 1.616529e-01 1.526863e-01
</event>
<event>
4 7 1.0 5000.0 7.905138e-03 7.739137e-02
 2 -1 0 0 101   0  0.000000e+00  0.000000e+00  2.622572e+03  2.622572e+03 0.0 0.0 9.0
21 -1 0 0 103 101  0.000000e+00  0.000000e+00 -2.294592e+03  2.294592e+03 0.0 0.0 9.0
 2  1 1 2 103   0  2.027619e+03 -4.502865e+02  1.472176e+03  2.545839e+03 0.0022 0.0 9.0
22  1 1 2   0   0 -2.027619e+03  4.502865e+02 -1.144196e+03  2.371324e+03 0.0 0.0 9.0
#pdf 2 21 4.034727e-01 3.530141e-01 5000.0 1.394888e-01 1.884605e-01
</event>
<event>
4 7 1.0 5000.0 7.905138e-03 7.739137e-02
21 -1 0 0 103 101  0.000000e+00  0.000000e+00  4.922220e+03  4.922220e+03 0.0 0.0 9.0
 2 -1 0 0 101   0  0.000000e+00  0.000000e+00 -1.286556e+03  1.286556e+03 0.0 0.0 9.0
22  1 1 2   0   0  1.161587e+03 -1.488157e+03  3.870545e+03  4.306392e+03 0.0 0.0 9.0
 2  1 1 2 103   0 -1.161587e+03  1.488157e+03 -2.348801e+02  1.902384e+03 0.0022 0.0 9.0
#pdf 21 2 7.572646e-01 1.979316e-01 5000.0 3.095665e-05 1.292434e-01
</event>
<event>
4 7 1.0 5000.0 7.905138e-03 7.739137e-02
 2 -1 0 0 101   0  0.000000e+00  0.000000e+00  4.466239e+03  4.466239e+03 0.0 0.0 9.0
21 -1 0 0 103 101  0.000000e+00  0.000000e+00 -1.298789e+03  1.298789e+03 0.0 0.0 9.0
 2  1 1 2 103   0  3.855774e+02 -2.021499e+03  3.081228e+03  3.705280e+03 0.0022 0.0 9.0
22  1 1 2   0   0 -3.855774e+02  2.021499e+03  8.622166e+01  2.059748e+03 0.0 0.0 9.0
#pdf 2 21 6.871137e-01 1.998137e-01 5000.0 1.063443e-02 3.822845e-01
</event>
<event>
4 7 1.0 5000.0 7.905138e-03 7.739137e-02
 2 -1 0 0 101   0  0.000000e+00  0.000000e+00  2.513831e+03  2.513831e+03 0.0 0.0 9.0
21 -1 0 0 103 101  0.000000e+00  0.000000e+00 -2.601956e+03  2.601956e+03 0.0 0.0 9.0
22  1 1 2   0   0  2.095582e+03  8.248507e+02  1.168155e+03  2.537012e+03 0.0 0.0 9.0
 2  1 1 2 103   0 -2.095582e+03 -8.248507e+02 -1.256279e+03  2.578775e+03 0.0022 0.0 9.0
#pdf 2 21 3.867433e-01 4.003009e-01 5000.0 1.547396e-01 1.423071e-01
</event>
<event>
4 7 1.0 5000.0 7.905138e-03 7.739137e-02
 2 -1 0 0 101   0  0.000000e+00  0.000000e+00  2.671461e+03  2.671461e+03 0.0 0.0 9.0
21 -1 0 0 103 101  0.000000e+00  0.000000e+00 -2.382155e+03  2.382155e+03 0.0 0.0 9.0
 2  1 1 2 103   0  2.092013e+03 -1.386208e+03 -1.121746e+02  2.512105e+03 0.0022 0.0 9.0
22  1 1 2   0   0 -2.092013e+03  1.386208e+03  4.014798e+02  2.541511e+03 0.0 0.0 9.0
#pdf 2 21 4.109939e-01 3.664854e-01 5000.0 1.329545e-01 1.745074e-01
</event>
<event>
4 7 1.0 5000.0 7.905138e-03 7.739137e-02
21 -1 0 0 103 101  0.000000e+00  0.000000e+00  3.332209e+03  3.332209e+03 0.0 0.0 9.0
 2 -1 0 0 101   0  0.000000e+00  0.000000e+00 -1.850981e+03  1.850981e+03 0.0 0.0 9.0
22  1 1 2   0   0 -1.005224e+03 -5.573851e+02  3.037943e+03  3.248115e+03 0.0 0.0 9.0
 2  1 1 2 103   0  1.005224e+03  5.573851e+02 -1.556716e+03  1.935075e+03 0.0022 0.0 9.0
#pdf 21 2 5.126476e-01 2.847664e-01 5000.0 2.364504e-03 4.340764e-02
</event>
<event>
4 7 1.0 5000.0 7.905138e-03 7.739137e-02
 2 -1 0 0 101   0  0.000000e+00  0.000000e+00  1.956579e+03  1.956579e+03 0.0 0.0 9.0
21 -1 0 0 103 101  0.000000e+00  0.000000e+00 -3.119049e+03  3.119049e+03 0.0 0.0 9.0
22  1 1 2   0   0 -7.124561e+02 -1.312391e+03  1.440420e+03  2.074795e+03 0.0 0.0 9.0
 2  1 1 2 103   0  7.124561e+02  1.312391e+03 -2.602890e+03  3.000833e+03 0.0022 0.0 9.0
#pdf 2 21 3.010122e-01 4.798537e-01 5000.0 2.479601e-01 8.228792e-02
</event>
<event>
4 7 1.0 5000.0 7.905138e-03 7.739137e-02
 2 -1 0 0 101   0  0.000000e+00  0.000000e+00  4.751740e+03  4.751740e+03 0.0 0.0 9.0
21 -1 0 0 103 101  0.000000e+00  0.000000e+00 -1.302335e+03  1.302335e+03 0.0 0.0 9.0
22  1 1 2   0   0 -2.232155e+03  1.068010e+03  1.414009e+03  2.850014e+03 0.0 0.0 9.0
 2  1 1 2 103   0  2.232155e+03 -1.068010e+03  2.035397e+03  3.204060e+03 0.0022 0.0 9.0
#pdf 2 21 7.310370e-01 2.003592e-01 5000.0 5.725952e-03 3.815313e-01
</event>
<event>
4 7 1.0 5000.0 7.905138e-03 7.739137e-02
21 -1 0 0 103 101  0.000000e+00  0.000000e+00  3.274908e+03  3.274908e+03 0.0 0.0 9.0
 2 -1 0 0 101   0  0.000000e+00  0.000000e+00 -1.922127e+03  1.922127e+03 0.0 0.0 9.0
 2  1 1 2 103   0 -1.021274e+03  1.792765e+03 -8.020842e+02  2.213672e+03 0.0022 0.0 9.0
22  1 1 2   0   0  1.021274e+03 -1.792765e+03  2.154865e+03  2.983362e+03 0.0 0.0 9.0
#pdf 21 2 5.038319e-01 2.957118e-01 5000.0 2.672634e-03 3.799846e-02
</event>
<event>
4 7 1.0 5000.0 7.905138e-03 7.739137e-02
21 -1 0 0 103 101  0.000000e+00  0.000000e+00  1.672040e+03  1.672040e+03 0.0 0.0 9.0
 2 -1 0 0 101   0  0.000000e+00  0.000000e+00 -3.678241e+03  3.678241e+03 0.0 0.0 9.0
22  1 1 2   0   0  1.787864e+03 -1.284708e+03  2.283433e+02  2.213385e+03 0.0 0.0 9.0
 2  1 1 2 103   0 -1.787864e+03  1.284708e+03 -2.234543e+03  3.136896e+03 0.0022 0.0 9.0
#pdf 21 2 2.572370e-01 5.658832e-01 5000.0 6.098419e-02 1.091727e-03
</event>
<event>
4 7 1.0 5000.0 7.905138e-03 7.739137e-02
 2 -1 0 0 101   0  0.000000e+00  0.000000e+00  3.191734e+03  3.191734e+03 0.0 0.0 9.0
21 -1 0 0 103 101  0.000000e+00  0.000000e+00 -1.836057e+03  1.836057e+03 0.0 0.0 9.0
 2  1 1 2 103   0 -7.337296e+02 -1.391510e+03  2.588595e+03  3.029106e+03 0.0022 0.0 9.0
22  1 1 2   0   0  7.337296e+02  1.391510e+03 -1.232917e+03  1.998685e+03 0.0 0.0 9.0
#pdf 2 21 4.910361e-01 2.824703e-01 5000.0 7.556129e-02 2.711247e-01
</event>
<event>
4 7 1.0 5000.0 7.905138e-03 7.739137e-02
 2 -1 0 0 101   0  0.000000e+00  0.000000e+00  2.372155e+03  2.372155e+03 0.0 0.0 9.0
21 -1 0 0 103 101  0.000000e+00  0.000000e+00 -2.824599e+03  2.824599e+03 0.0 0.0 9.0
22  1 1 2   0   0  1.542089e+03  1.643732e+03 -1.504059e+03  2.709629e+03 0.0 0.0 9.0
 2  1 1 2 103   0 -1.542089e+03 -1.643732e+03  1.051616e+03  2.487125e+03 0.0022 0.0 9.0
#pdf 2 21 3.649470e-01 4.345537e-01 5000.0 1.760703e-01 1.137877e-01
</event>
<event>
4 7 1.0 5000.0 7.905138e-03 7.739137e-02
 2 -1 0 0 101   0  0.000000e+00  0.000000e+00  2.633772e+03  2.633772e+03 0.0 0.0 9.0
21 -1 0 0 103 101  0.000000e+00  0.000000e+00 -2.590844e+03  2.590844e+03 0.0 0.0 9.0
22  1 1 2   0   0 -1.291185e+03 -3.707793e+02 -2.218937e+03  2.593900e+03 0.0 0.0 9.0
 2  1 1 2 103   0  1.291185e+03  3.707793e+02  2.261864e+03  2.630716e+03 0.0022 0.0 9.0
#pdf 2 21 4.051957e-01 3.985915e-01 5000.0 1.379732e-01 1.438407e-01
</event>
<event>
4 7 1.0 5000.0 7.905138e-03 7.739137e-02
21 -1 0 0 103 101  0.000000e+00  0.000000e+00  2.122565e+03  2.122565e+03 0.0 0.0 9.0
 2 -1 0 0 101   0  0.000000e+00  0.000000e+00 -2.973963e+03  2.973963e+03 0.0 0.0 9.0
 2  1 1 2 103   0  9.772729e+01 -1.168231e+03  1.828160e+03  2.171747e+03 0.0022 0.0 9.0
22  1 1 2   0   0 -9.772729e+01  1.168231e+03 -2.679558e+03  2.924781e+03 0.0 0.0 9.0
#pdf 21 2 3.265485e-01 4.575328e-01 5000.0 2.602223e-02 4.997162e-03
</event>
<event>
4 7 1.0 5000.0 7.905138e-03 7.739137e-02
21 -1 0 0 103 101  0.000000e+00  0.000000e+00  1.928126e+03  1.928126e+03 0.0 0.0 9.0
 2 -1 0 0 101   0  0.000000e+00  0.000000e+00 -3.266280e+03  3.266280e+03 0.0 0.0 9.0
22  1 1 2   0   0  9.757487e+02 -1.081228e+03  1.445999e+03  2.052329e+03 0.0 0.0 9.0
 2  1 1 2 103   0 -9.757487e+02  1.081228e+03 -2.784153e+03  3.142077e+03 0.0022 0.0 9.0
#pdf 21 2 2.966348e-01 5.025046e-01 5000.0 3.756687e-02 2.722225e-03
</event>
<event>
4 7 1.0 5000.0 7.905138e-03 7.739137e-02
21 -1 0 0 103 101  0.000000e+00  0.000000e+00  3.847037e+03  3.847037e+03 0.0 0.0 9.0
 2 -1 0 0 101   0  0.000000e+00  0.000000e+00 -1.607159e+03  1.607159e+03 0.0 0.0 9.0
22  1 1 2   0   0  1.132141e+02 -8.753821e+02 -1.429551e+03  1.680098e+03 0.0 0.0 9.0
 2  1 1 2 103   0 -1.132141e+02  8.753821e+02  3.669429e+03  3.774099e+03 0.0022 0.0 9.0
#pdf 21 2 5.918519e-01 2.472553e-01 5000.0 7.303390e-04 6.901129e-02
</event>
<event>
4 7 1.0 5000.0 7.905138e-03 7.739137e-02
 2 -1 0 0 101   0  0.000000e+00  0.000000e+00  2.442674e+03  2.442674e+03 0.0 0.0 9.0
21 -1 0 0 103 101  0.000000e+00  0.000000e+00 -2.246161e+03  2.246161e+03 0.0 0.0 9.0
22  1 1 2   0   0 -1.740179e+03  4.155588e+02  1.611449e+03  2.407837e+03 0.0 0.0 9.0
 2  1 1 2 103   0  1.740179e+03 -4.155588e+02 -1.414935e+03  2.280998e+03 0.0022 0.0 9.0
#pdf 2 21 3.757961e-01 3.455632e-01 5000.0 1.652430e-01 1.964483e-01
</event>
<event>
4 7 1.0 5000.0 7.905138e-03 7.739137e-02
 2 -1 0 0 101   0  0.000000e+00  0.000000e+00  3.185421e+03  3.185421e+03 0.0 0.0 9.0
21 -1 0 0 103 101  0.000000e+00  0.000000e+00 -1.936945e+03  1.936945e+03 0.0 0.0 9.0
22  1 1 2   0   0 -1.949801e+03  1.436745e+03  5.571025e+01  2.422616e+03 0.0 0.0 9.0
 2  1 1 2 103   0  1.949801e+03 -1.436745e+03  1.192766e+03  2.699750e+03 0.0022 0.0 9.0
#pdf 2 21 4.900648e-01 2.979916e-01 5000.0 7.612987e-02 2.516611e-01
</event>
<event>
4 7 1.0 5000.0 7.905138e-03 7.739137e-02
 2 -1 0 0 101   0  0.000000e+00  0.000000e+00  2.582269e+03  2.582269e+03 0.0 0.0 9.0
21 -1 0 0 103 101  0.000000e+00  0.000000e+00 -2.479424e+03  2.479424e+03 0.0 0.0 9.0
22  1 1 2   0   0  8.113137e+02 -1.615246e+03 -1.719618e+03  2.494862e+03 0.0 0.0 9.0
 2  1 1 2 103   0 -8.113137e+02  1.615246e+03  1.822463e+03  2.566831e+03 0.0022 0.0 9.0
#pdf 2 21 3.972721e-01 3.814498e-01 5000.0 1.450314e-01 1.597680e-01
</event>
<event>
4 7 1.0 5000.0 7.905138e-03 7.739137e-02
 2 -1 0 0 101   0  0.000000e+00  0.000000e+00  1.534819e+03  1.534819e+03 0.0 0.0 9.0
21 -1 0 0 103 101  0.000000e+00  0.000000e+00 -4.070995e+03  4.070995e+03 0.0 0.0 9.0
 2  1 1 2 103   0  1.115145e+03 -1.788242e+03 -2.775371e+03  3.484830e+03 0.0022 0.0 9.0
22  1 1 2   0   0 -1.115145e+03  1.788242e+03  2.391945e+02  2.120984e+03 0.0 0.0 9.0
#pdf 2 21 2.361260e-01 6.263070e-01 5000.0 3.323381e-01 2.191361e-02
</event>
<event>
4 7 1.0 5000.0 7.905138e-03 7.739137e-02
21 -1 0 0 103 101  0.000000e+00  0.000000e+00  1.687204e+03  1.687204e+03 0.0 0.0 9.0
 2 -1 0 0 101   0  0.000000e+00  0.000000e+00 -3.339758e+03  3.339758e+03 0.0 0.0 9.0
22  1 1 2   0   0 -7.847094e+02  2.187406e+03 -3.137021e+02  2.344978e+03 0.0 0.0 9.0
 2  1 1 2 103   0  7.847094e+02 -2.187406e+03 -1.338852e+03  2.681984e+03 0.0022 0.0 9.0
#pdf 21 2 2.595698e-01 5.138089e-01 5000.0 5.922621e-02 2.326375e-03
</event>
<event>
4 7 1.0 5000.0 7.905138e-03 7.739137e-02
 2 -1 0 0 101   0  0.000000e+00  0.000000e+00  1.555539e+03  1.555539e+03 0.0 0.0 9.0
21 -1 0 0 103 101  0.000000e+00  0.000000e+00 -3.510622e+03  3.510622e+03 0.0 0.0 9.0
 2  1 1 2 103   0 -8.533050e+02 -1.136428e+03 -2.988386e+03  3.309086e+03 0.0022 0.0 9.0
22  1 1 2   0   0  8.533050e+02  1.136428e+03  1.033303e+03  1.757075e+03 0.0 0.0 9.0
#pdf 2 21 2.393137e-01 5.400957e-01 5000.0 3.279975e-01 5.056102e-02
</event>
<event>
4 7 1.0 5000.0 7.905138e-03 7.739137e-02
21 -1 0 0 103 101  0.000000e+00  0.000000e+00  2.013411e+03  2.013411e+03 0.0 0.0 9.0
 2 -1 0 0 101   0  0.000000e+00  0.000000e+00 -3.715501e+03  3.715501e+03 0.0 0.0 9.0
22  1 1 2   0   0  7.544755e+01  1.360334e+03  1.632740e+03  2.126510e+03 0.0 0.0 9.0
 2  1 1 2 103   0 -7.544755e+01 -1.360334e+03 -3.334831e+03  3.602402e+03 0.0022 0.0 9.0
#pdf 21 2 3.097555e-01 5.716155e-01 5000.0 3.199226e-02 9.997081e-04
</event>
<event>
4 7 1.0 5000.0 7.905138e-03 7.739137e-02
21 -1 0 0 103 101  0.000000e+00  0.000000e+00  3.466332e+03  3.466332e+03 0.0 0.0 9.0
 2 -1 0 0 101   0  0.000000e+00  0.000000e+00 -1.745773e+03  1.745773e+03 0.0 0.0 9.0
 2  1 1 2 103   0  6.977923e+02  2.356057e+03  9.834178e+02  2.646701e+03 0.0022 0.0 9.0
22  1 1 2   0   0 -6.977923e+02 -2.356057e+03  7.371407e+02  2.565403e+03 0.0 0.0 9.0
#pdf 21 2 5.332818e-01 2.685805e-01 5000.0 1.764687e-03 5.296286e-02
</event>
<event>
4 7 1.0 5000.0 7.905138e-03 7.739137e-02
 2 -1 0 0 101   0  0.000000e+00  0.000000e+00  2.547223e+03  2.547223e+03 0.0 0.0 9.0
21 -1 0 0 103 101  0.000000e+00  0.000000e+00 -2.288219e+03  2.288219e+03 0.0 0.0 9.0
22  1 1 2   0   0  1.690224e+02  1.414516e+03  2.081452e+03  2.522275e+03 0.0 0.0 9.0
 2  1 1 2 103   0 -1.690224e+02 -1.414516e+03 -1.822448e+03  2.313167e+03 0.0022 0.0 9.0
#pdf 2 21 3.918805e-01 3.520336e-01 5000.0 1.499568e-01 1.895004e-01
</event>
<event>
4 7 1.0 5000.0 7.905138e-03 7.739137e-02
21 -1 0 0 103 101  0.000000e+00  0.000000e+00  2.320675e+03  2.320675e+03 0.0 0.0 9.0
 2 -1 0 0 101   0  0.000000e+00  0.000000e+00 -2.741272e+03  2.741272e+03 0.0 0.0 9.0
22  1 1 2   0   0 -8.720233e+02  2.597112e+02 -2.570849e+03  2.727112e+03 0.0 0.0 9.0
 2  1 1 2 103   0  8.720233e+02 -2.597112e+02  2.150251e+03  2.334835e+03 0.0022 0.0 9.0
#pdf 21 2 3.570269e-01 4.217342e-01 5000.0 1.788952e-02 7.952250e-03
</event>
<event>
4 7 1.0 5000.0 7.905138e-03 7.739137e-02
 2 -1 0 0 101   0  0.000000e+00  0.000000e+00  3.150898e+03  3.150898e+03 0.0 0.0 9.0
21 -1 0 0 103 101  0.000000e+00  0.000000e+00 -1.955310e+03  1.955310e+03 0.0 0.0 9.0
22  1 1 2   0   0 -1.852645e+03  4.543990e+02 -1.035762e+03  2.170616e+03 0.0 0.0 9.0
 2  1 1 2 103   0  1.852645e+03 -4.543990e+02  2.231351e+03  2.935592e+03 0.0022 0.0 9.0
#pdf 2 21 4.847536e-01 3.008169e-01 5000.0 7.929164e-02 2.481999e-01
</event>
<event>
4 7 1.0 5000.0 7.905138e-03 7.739137e-02
21 -1 0 0 103 101  0.000000e+00  0.000000e+00  1.308216e+03  1.308216e+03 0.0 0.0 9.0
 2 -1 0 0 101   0  0.000000e+00  0.000000e+00 -3.326737e+03  3.326737e+03 0.0 0.0 9.0
22  1 1 2   0   0 -1.326490e+03  5.050580e+02 -2.707643e+03  3.057122e+03 0.0 0.0 9.0
 2  1 1 2 103   0  1.326490e+03 -5.050580e+02  6.891233e+02  1.577831e+03 0.0022 0.0 9.0
#pdf 21 2 2.012641e-01 5.118056e-01 5000.0 1.237543e-01 2.392478e-03
</event>
<event>
4 7 1.0 5000.0 7.905138e-03 7.739137e-02
 2 -1 0 0 101   0  0.000000e+00  0.000000e+00  2.129334e+03  2.129334e+03 0.0 0.0 9.0
21 -1 0 0 103 101  0.000000e+00  0.000000e+00 -2.841712e+03  2.841712e+03 0.0 0.0 9.0
 2  1 1 2 103   0  1.919793e+03  4.996572e+02  1.113521e+03  2.274905e+03 0.0022 0.0 9.0
22  1 1 2   0   0 -1.919793e+03 -4.996572e+02 -1.825899e+03  2.696140e+03 0.0 0.0 9.0
#pdf 2 21 3.275898e-01 4.371864e-01 5000.0 2.164730e-01 1.117696e-01
</event>
<event>
4 7 1.0 5000.0 7.905138e-03 7.739137e-02
21 -1 0 0 103 101  0.000000e+00  0.000000e+00  2.242686e+03  2.242686e+03 0.0 0.0 9.0
 2 -1 0 0 101   0  0.000000e+00  0.000000e+00 -2.853518e+03  2.853518e+03 0.0 0.0 9.0
22  1 1 2   0   0  9.781468e+02  2.102326e+03  7.133621e+02  2.425991e+03 0.0 0.0 9.0
 2  1 1 2 103   0 -9.781468e+02 -2.102326e+03 -1.324194e+03  2.670213e+03 0.0022 0.0 9.0
#pdf 21 2 3.450286e-01 4.390028e-01 5000.0 2.074707e-02 6.372433e-03
</event>
<event>
4 7 1.0 5000.0 7.905138e-03 7.739137e-02
 2 -1 0 0 101   0  0.000000e+00  0.000000e+00  2.118910e+03  2.118910e+03 0.0 0.0 9.0
21 -1 0 0 103 101  0.000000e+00  0.000000e+00 -2.924560e+03  2.924560e+03 0.0 0.0 9.0
 2  1 1 2 103   0  4.113637e+02  1.080501e+03  1.830434e+03  2.164992e+03 0.0022 0.0 9.0
22  1 1 2   0   0 -4.113637e+02 -1.080501e+03 -2.636084e+03  2.878479e+03 0.0 0.0 9.0
#pdf 2 21 3.259862e-01 4.499324e-01 5000.0 2.183125e-01 1.023094e-01
</event>
<event>
4 7 1.0 5000.0 7.905138e-03 7.739137e-02
 2 -1 0 0 101   0  0.000000e+00  0.000000e+00  2.753826e+03  2.753826e+03 0.0 0.0 9.0
21 -1 0 0 103 101  0.000000e+00  0.000000e+00 -2.209854e+03  2.209854e+03 0.0 0.0 9.0
22  1 1 2   0   0 -1.305104e+03  5.992782e+01 -1.833221e+03  2.251130e+03 0.0 0.0 9.0
 2  1 1 2 103   0  1.305104e+03 -5.992782e+01  2.377193e+03  2.712551e+03 0.0022 0.0 9.0
#pdf 2 21 4.236656e-01 3.399776e-01 5000.0 1.223930e-01 2.025588e-01
</event>
<event>
4 7 1.0 5000.0 7.905138e-03 7.739137e-02
 2 -1 0 0 101   0  0.000000e+00  0.000000e+00  2.129322e+03  2.129322e+03 0.0 0.0 9.0
21 -1 0 0 103 101  0.000000e+00  0.000000e+00 -2.943132e+03  2.943132e+03 0.0 0.0 9.0
 2  1 1 2 103   0  2.076684e+03  1.596886e+02  1.000119e+03  2.310488e+03 0.0022 0.0 9.0
22  1 1 2   0   0 -2.076684e+03 -1.596886e+02 -1.813929e+03  2.761966e+03 0.0 0.0 9.0
#pdf 2 21 3.275880e-01 4.527895e-01 5000.0 2.164751e-01 1.002723e-01
</event>
<event>
4 7 1.0 5000.0 7.905138e-03 7.739137e-02
 2 -1 0 0 101   0  0.000000e+00  0.000000e+00  3.450138e+03  3.450138e+03 0.0 0.0 9.0
21 -1 0 0 103 101  0.000000e+00  0.000000e+00 -1.824599e+03  1.824599e+03 0.0 0.0 9.0
22  1 1 2   0   0  1.246387e+03 -1.329661e+03 -9.998775e+02  2.078757e+03 0.0 0.0 9.0
 2  1 1 2 103   0 -1.246387e+03  1.329661e+03  2.625416e+03  3.195980e+03 0.0022 0.0 9.0
#pdf 2 21 5.307904e-01 2.807076e-01 5000.0 5.477390e-02 2.733695e-01
</event>
<event>
4 7 1.0 5000.0 7.905138e-03 7.739137e-02
21 -1 0 0 103 101  0.000000e+00  0.000000e+00  4.325246e+03  4.325246e+03 0.0 0.0 9.0
 2 -1 0 0 101   0  0.000000e+00  0.000000e+00 -1.436773e+03  1.436773e+03 0.0 0.0 9.0
 2  1 1 2 103   0 -6.385999e+02  5.133853e+02 -1.276701e+03  1.517016e+03 0.0022 0.0 9.0
22  1 1 2   0   0  6.385999e+02 -5.133853e+02  4.165174e+03  4.245003e+03 0.0 0.0 9.0
#pdf 21 2 6.654225e-01 2.210420e-01 5000.0 2.095427e-04 9.598658e-02
</event>
<event>
4 7 1.0 5000.0 7.905138e-03 7.739137e-02
 2 -1 0 0 101   0  0.000000e+00  0.000000e+00  3.075662e+03  3.075662e+03 0.0 0.0 9.0
21 -1 0 0 103 101  0.000000e+00  0.000000e+00 -1.996748e+03  1.996748e+03 0.0 0.0 9.0
22  1 1 2   0   0 -1.790821e+03  1.998591e+02 -1.201661e+03  2.165865e+03 0.0 0.0 9.0
 2  1 1 2 103   0  1.790821e+03 -1.998591e+02  2.280574e+03  2.906545e+03 0.0022 0.0 9.0
#pdf 2 21 4.731787e-01 3.071920e-01 5000.0 8.649927e-02 2.404390e-01
</event>
<event>
4 7 1.0 5000.0 7.905138e-03 7.739137e-02
 2 -1 0 0 101   0  0.000000e+00  0.000000e+00  2.925682e+03  2.925682e+03 0.0 0.0 9.0
21 -1 0 0 103 101  0.000000e+00  0.000000e+00 -2.184034e+03  2.184034e+03 0.0 0.0 9.0
22  1 1 2   0   0 -1.377746e+03 -1.711515e+03  1.634131e+03  2.738220e+03 0.0 0.0 9.0
 2  1 1 2 103   0  1.377746e+03  1.711515e+03 -8.924826e+02  2.371496e+03 0.0022 0.0 9.0
#pdf 2 21 4.501050e-01 3.360052e-01 5000.0 1.021858e-01 2.069634e-01
</event>
<event>
4 7 1.0 5000.0 7.905138e-03 7.739137e-02
21 -1 0 0 103 101  0.000000e+00  0.000000e+00  1.513392e+03  1.513392e+03 0.0 0.0 9.0
 2 -1 0 0 101   0  0.000000e+00  0.000000e+00 -4.524941e+03  4.524941e+03 0.0 0.0 9.0
 2  1 1 2 103   0 -1.024292e+03  1.256152e+03 -3.876102e+03  4.201340e+03 0.0022 0.0 9.0
22  1 1 2   0   0  1.024292e+03 -1.256152e+03  8.645536e+02  1.836993e+03 0.0 0.0 9.0
#pdf 21 2 2.328296e-01 6.961448e-01 5000.0 8.266867e-02 1.169191e-04
</event>
<event>
4 7 1.0 5000.0 7.905138e-03 7.739137e-02
 2 -1 0 0 101   0  0.000000e+00  0.000000e+00  3.356489e+03  3.356489e+03 0.0 0.0 9.0
21 -1 0 0 103 101  0.000000e+00  0.000000e+00 -1.668204e+03  1.668204e+03 0.0 0.0 9.0
22  1 1 2   0   0 -1.430848e+03  1.246860e+03  2.344645e+03  3.016512e+03 0.0 0.0 9.0
 2  1 1 2 103   0  1.430848e+03 -1.246860e+03 -6.563604e+02  2.008182e+03 0.0022 0.0 9.0
#pdf 2 21 5.163830e-01 2.566468e-01 5000.0 6.175867e-02 3.047340e-01
</event>
<event>
4 7 1.0 5000.0 7.905138e-03 7.739137e-02
21 -1 0 0 103 101  0.000000e+00  0.000000e+00  2.791103e+03  2.791103e+03 0.0 0.0 9.0
 2 -1 0 0 101   0  0.000000e+00  0.000000e+00 -2.253976e+03  2.253976e+03 0.0 0.0 9.0
 2  1 1 2 103   0  1.620692e+02  8.045313e+02  2.652247e+03  2.776320e+03 0.0022 0.0 9.0
22  1 1 2   0   0 -1.620692e+02 -8.045313e+02 -2.115120e+03  2.268759e+03 0.0 0.0 9.0
#pdf 21 2 4.294005e-01 3.467655e-01 5000.0 7.206156e-03 2.031076e-02
</event>
<event>
4 7 1.0 5000.0 7.905138e-03 7.739137e-02
21 -1 0 0 103 101  0.000000e+00  0.000000e+00  1.372186e+03  1.372186e+03 0.0 0.0 9.0
 2 -1 0 0 101   0  0.000000e+00  0.000000e+00 -4.799319e+03  4.799319e+03 0.0 0.0 9.0
 2  1 1 2 103   0  2.096502e+03  1.425233e+03 -1.234168e+03  2.819535e+03 0.0022 0.0 9.0
22  1 1 2   0   0 -2.096502e+03 -1.425233e+03 -2.192965e+03  3.351970e+03 0.0 0.0 9.0
#pdf 21 2 2.111056e-01 7.383567e-01 5000.0 1.089792e-01 4.800574e-05
</event>
<event>
4 7 1.0 5000.0 7.905138e-03 7.739137e-02
21 -1 0 0 103 101  0.000000e+00  0.000000e+00  1.359736e+03  1.359736e+03 0.0 0.0 9.0
 2 -1 0 0 101   0  0.000000e+00  0.000000e+00 -4.560113e+03  4.560113e+03 0.0 0.0 9.0
22  1 1 2   0   0  9.647415e+02  1.741989e+03 -3.377376e+03  3.920704e+03 0.0 0.0 9.0
 2  1 1 2 103   0 -9.647415e+02 -1.741989e+03  1.769987e+02  1.999145e+03 0.0022 0.0 9.0
#pdf 21 2 2.091901e-01 7.015559e-01 5000.0 1.116560e-01 1.048493e-04
</event>
<event>
4 7 1.0 5000.0 7.905138e-03 7.739137e-02
21 -1 0 0 103 101  0.000000e+00  0.000000e+00  2.299279e+03  2.299279e+03 0.0 0.0 9.0
 2 -1 0 0 101   0  0.000000e+00  0.000000e+00 -2.729197e+03  2.729197e+03 0.0 0.0 9.0
 2  1 1 2 103   0 -2.448508e+03 -2.925405e+02 -6.575040e+02  2.552074e+03 0.0022 0.0 9.0
22  1 1 2   0   0  2.448508e+03  2.925405e+02  2.275857e+02  2.476402e+03 0.0 0.0 9.0
#pdf 21 2 3.537353e-01 4.198765e-01 5000.0 1.863645e-02 8.143111e-03
</event>
<event>
4 7 1.0 5000.0 7.905138e-03 7.739137e-02
21 -1 0 0 103 101  0.000000e+00  0.000000e+00  1.387580e+03  1.387580e+03 0.0 0.0 9.0
 2 -1 0 0 101   0  0.000000e+00  0.000000e+00 -4.537637e+03  4.537637e+03 0.0 0.0 9.0
 2  1 1 2 103   0 -2.214453e+03  1.018033e+03 -2.279624e+03  3.337197e+03 0.0022 0.0 9.0
22  1 1 2   0   0  2.214453e+03 -1.018033e+03 -8.704326e+02  2.588020e+03 0.0 0.0 9.0
#pdf 21 2 2.134738e-01 6.980980e-01 5000.0 1.057449e-01 1.124293e-04
</event>
<event>
4 7 1.0 5000.0 7.905138e-03 7.739137e-02
 2 -1 0 0 101   0  0.000000e+00  0.000000e+00  3.011311e+03  3.011311e+03 0.0 0.0 9.0
21 -1 0 0 103 101  0.000000e+00  0.000000e+00 -2.294329e+03  2.294329e+03 0.0 0.0 9.0
 2  1 1 2 103   0  3.190344e+02  1.948472e+03 -1.392684e+03  2.416174e+03 0.0022 0.0 9.0
22  1 1 2   0   0 -3.190344e+02 -1.948472e+03  2.109665e+03  2.889466e+03 0.0 0.0 9.0
#pdf 2 21 4.632786e-01 3.529737e-01 5000.0 9.300672e-02 1.885032e-01
</event>
<event>
4 7 1.0 5000.0 7.905138e-03 7.739137e-02
 2 -1 0 0 101   0  0.000000e+00  0.000000e+00  1.826880e+03  1.826880e+03 0.0 0.0 9.0
21 -1 0 0 103 101  0.000000e+00  0.000000e+00 -3.130082e+03  3.130082e+03 0.0 0.0 9.0
22  1 1 2   0   0  7.122880e+02  1.100350e+03 -2.724563e+03  3.023470e+03 0.0 0.0 9.0
 2  1 1 2 103   0 -7.122880e+02 -1.100350e+03  1.421361e+03  1.933493e+03 0.0022 0.0 9.0
#pdf 2 21 2.810585e-01 4.815511e-01 5000.0 2.729220e-01 8.124112e-02
</event>
<event>
4 7 1.0 5000.0 7.905138e-03 7.739137e-02
 2 -1 0 0 101   0  0.000000e+00  0.000000e+00  2.242307e+03  2.242307e+03 0.0 0.0 9.0
21 -1 0 0 103 101  0.000000e+00  0.000000e+00 -2.651740e+03  2.651740e+03 0.0 0.0 9.0
 2  1 1 2 103   0 -4.107649e+02 -1.429345e+03 -2.143938e+03  2.609257e+03 0.0022 0.0 9.0
22  1 1 2   0   0  4.107649e+02  1.429345e+03  1.734505e+03  2.284790e+03 0.0 0.0 9.0
#pdf 2 21 3.449704e-01 4.079600e-01 5000.0 1.970920e-01 1.355651e-01
</event>
<event>
4 7 1.0 5000.0 7.905138e-03 7.739137e-02
 2 -1 0 0 101   0  0.000000e+00  0.000000e+00  2.274537e+03  2.274537e+03 0.0 0.0 9.0
21 -1 0 0 103 101  0.000000e+00  0.000000e+00 -2.724252e+03  2.724252e+03 0.0 0.0 9.0
 2  1 1 2 103   0 -6.897856e+02  1.516731e+03  1.632033e+03  2.332340e+03 0.0022 0.0 9.0
22  1 1 2   0   0  6.897856e+02 -1.516731e+03 -2.081748e+03  2.666449e+03 0.0 0.0 9.0
#pdf 2 21 3.499288e-01 4.191157e-01 5000.0 1.917446e-01 1.261199e-01
</event>
<event>
4 7 1.0 5000.0 7.905138e-03 7.739137e-02
21 -1 0 0 103 101  0.000000e+00  0.000000e+00  3.145355e+03  3.145355e+03 0.0 0.0 9.0
 2 -1 0 0 101   0  0.000000e+00  0.000000e+00 -1.985713e+03  1.985713e+03 0.0 0.0 9.0
22  1 1 2   0   0  1.387403e+03 -1.776513e+03  1.687786e+03  2.815939e+03 0.0 0.0 9.0
 2  1 1 2 103   0 -1.387403e+03  1.776513e+03 -5.281438e+02  2.315129e+03 0.0022 0.0 9.0
#pdf 21 2 4.839008e-01 3.054943e-01 5000.0 3.511431e-03 3.370904e-02
</event>
<event>
4 7 1.0 5000.0 7.905138e-03 7.739137e-02
21 -1 0 0 103 101  0.000000e+00  0.000000e+00  1.894858e+03  1.894858e+03 0.0 0.0 9.0
 2 -1 0 0 101   0  0.000000e+00  0.000000e+00 -3.338776e+03  3.338776e+03 0.0 0.0 9.0
22  1 1 2   0   0 -8.153497e+02  8.729110e+02 -3.024873e+03  3.252173e+03 0.0 0.0 9.0
 2  1 1 2 103   0  8.153497e+02 -8.729110e+02  1.580955e+03  1.981461e+03 0.0022 0.0 9.0
#pdf 21 2 2.915166e-01 5.136578e-01 5000.0 3.999741e-02 2.331305e-03
</event>
<event>
4 7 1.0 5000.0 7.905138e-03 7.739137e-02
 2 -1 0 0 101   0  0.000000e+00  0.000000e+00  3.750025e+03  3.750025e+03 0.0 0.0 9.0
21 -1 0 0 103 101  0.000000e+00  0.000000e+00 -1.948033e+03  1.948033e+03 0.0 0.0 9.0
22  1 1 2   0   0 -1.367823e+03  8.137087e+02  3.203693e+03  3.577249e+03 0.0 0.0 9.0
 2  1 1 2 103   0  1.367823e+03 -8.137087e+02 -1.401701e+03  2.120808e+03 0.0022 0.0 9.0
#pdf 2 21 5.769269e-01 2.996973e-01 5000.0 3.618185e-02 2.495718e-01
</event>
<event>
4 7 1.0 5000.0 7.905138e-03 7.739137e-02
 2 -1 0 0 101   0  0.000000e+00  0.000000e+00  2.588459e+03  2.588459e+03 0.0 0.0 9.0
21 -1 0 0 103 101  0.000000e+00  0.000000e+00 -2.432746e+03  2.432746e+03 0.0 0.0 9.0
22  1 1 2   0   0 -1.338897e+03 -1.983423e+03 -6.777882e+02  2.487169e+03 0.0 0.0 9.0
 2  1 1 2 103   0  1.338897e+03  1.983423e+03  8.335012e+02  2.534036e+03 0.0022 0.0 9.0
#pdf 2 21 3.982244e-01 3.742686e-01 5000.0 1.441714e-01 1.667396e-01
</event>
<event>
4 7 1.0 5000.0 7.905138e-03 7.739137e-02
21 -1 0 0 103 101  0.000000e+00  0.000000e+00  2.891961e+03  2.891961e+03 0.0 0.0 9.0
 2 -1 0 0 101   0  0.000000e+00  0.000000e+00 -2.195991e+03  2.195991e+03 0.0 0.0 9.0
22  1 1 2   0   0 -1.734867e+03 -1.827664e+03  3.727827e+02  2.547368e+03 0.0 0.0 9.0
 2  1 1 2 103   0  1.734867e+03  1.827664e+03  3.231880e+02  2.540584e+03 0.0022 0.0 9.0
#pdf 21 2 4.449171e-01 3.378447e-01 5000.0 5.894392e-03 2.265392e-02
</event>
<event>
4 7 1.0 5000.0 7.905138e-03 7.739137e-02
 2 -1 0 0 101   0  0.000000e+00  0.000000e+00  3.101068e+03  3.101068e+03 0.0 0.0 9.0
21 -1 0 0 103 101  0.000000e+00  0.000000e+00 -2.009124e+03  2.009124e+03 0.0 0.0 9.0
22  1 1 2   0   0  2.482387e+03  1.615385e+02  3.359614e+02  2.510221e+03 0.0 0.0 9.0
 2  1 1 2 103   0 -2.482387e+03 -1.615385e+02  7.559826e+02  2.599971e+03 0.0022 0.0 9.0
#pdf 2 21 4.770874e-01 3.090960e-01 5000.0 8.401517e-02 2.381478e-01
</event>
<event>
4 7 1.0 5000.0 7.905138e-03 7.739137e-02
 2 -1 0 0 101   0  0.000000e+00  0.000000e+00  3.284791e+03  3.284791e+03 0.0 0.0 9.0
21 -1 0 0 103 101  0.000000e+00  0.000000e+00 -1.810953e+03  1.810953e+03 0.0 0.0 9.0
 2  1 1 2 103   0 -1.301007e+03  2.019520e+03  2.967756e+02  2.420570e+03 0.0022 0.0 9.0
22  1 1 2   0   0  1.301007e+03 -2.019520e+03  1.177062e+03  2.675174e+03 0.0 0.0 9.0
#pdf 2 21 5.053524e-01 2.786082e-01 5000.0 6.752434e-02 2.760547e-01
</event>
<event>
4 7 1.0 5000.0 7.905138e-03 7.739137e-02
 2 -1 0 0 101   0  0.000000e+00  0.000000e+00  2.943151e+03  2.943151e+03 0.0 0.0 9.0
21 -1 0 0 103 101  0.000000e+00  0.000000e+00 -2.138326e+03  2.138326e+03 0.0 0.0 9.0
22  1 1 2   0   0  8.554221e+02 -2.199335e+03  1.264525e+03  2.677284e+03 0.0 0.0 9.0
 2  1 1 2 103   0 -8.554221e+02  2.199335e+03 -4.596997e+02  2.404194e+03 0.0022 0.0 9.0
#pdf 2 21 4.527925e-01 3.289732e-01 5000.0 1.002702e-01 2.148928e-01
</event>
<event>
4 7 1.0 5000.0 7.905138e-03 7.739137e-02
 2 -1 0 0 101   0  0.000000e+00  0.000000e+00  3.305069e+03  3.305069e+03 0.0 0.0 9.0
21 -1 0 0 103 101  0.000000e+00  0.000000e+00 -1.889681e+03  1.889681e+03 0.0 0.0 9.0
22  1 1 2   0   0 -3.068972e+02  2.478361e+03  8.066470e+02  2.624336e+03 0.0 0.0 9.0
 2  1 1 2 103   0  3.068972e+02 -2.478361e+03  6.087412e+02  2.570414e+03 0.0022 0.0 9.0
#pdf 2 21 5.084722e-01 2.907201e-01 5000.0 6.585660e-02 2.606937e-01
</event>
<event>
4 7 1.0 5000.0 7.905138e-03 7.739137e-02
21 -1 0 0 103 101  0.000000e+00  0.000000e+00  1.721655e+03  1.721655e+03 0.0 0.0 9.0
 2 -1 0 0 101   0  0.000000e+00  0.000000e+00 -3.666722e+03  3.666722e+03 0.0 0.0 9.0
22  1 1 2   0   0 -2.239579e+03  9.779585e+02 -1.598443e+03  2.920126e+03 0.0 0.0 9.0
 2  1 1 2 103   0  2.239579e+03 -9.779585e+02 -3.466237e+02  2.468251e+03 0.0022 0.0 9.0
#pdf 21 2 2.648700e-01 5.641111e-01 5000.0 5.544433e-02 1.121624e-03
</event>
<event>
4 7 1.0 5000.0 7.905138e-03 7.739137e-02
 2 -1 0 0 101   0  0.000000e+00  0.000000e+00  3.374486e+03  3.374486e+03 0.0 0.0 9.0
21 -1 0 0 103 101  0.000000e+00  0.000000e+00 -2.151744e+03  2.151744e+03 0.0 0.0 9.0
 2  1 1 2 103   0 -2.080757e+03 -4.814520e+02 -1.073459e+03  2.390327e+03 0.0022 0.0 9.0
22  1 1 2   0   0  2.080757e+03  4.814520e+02  2.296201e+03  3.135903e+03 0.0 0.0 9.0
#pdf 2 21 5.191516e-01 3.310375e-01 5000.0 6.036866e-02 2.125469e-01
</event>
<event>
4 7 1.0 5000.0 7.905138e-03 7.739137e-02
 2 -1 0 0 101   0  0.000000e+00  0.000000e+00  2.421417e+03  2.421417e+03 0.0 0.0 9.0
21 -1 0 0 103 101  0.000000e+00  0.000000e+00 -2.679311e+03  2.679311e+03 0.0 0.0 9.0
22  1 1 2   0   0 -1.225794e+02  4.387471e+02 -2.638190e+03  2.677232e+03 0.0 0.0 9.0
 2  1 1 2 103   0  1.225794e+02 -4.387471e+02  2.380296e+03  2.423496e+03 0.0022 0.0 9.0
#pdf 2 21 3.725257e-01 4.122018e-01 5000.0 1.684556e-01 1.319238e-01
</event>
<event>
4 7 1.0 5000.0 7.905138e-03 7.739137e-02
21 -1 0 0 103 101  0.000000e+00  0.000000e+00  2.266681e+03  2.266681e+03 0.0 0.0 9.0
 2 -1 0 0 101   0  0.000000e+00  0.000000e+00 -2.788942e+03  2.788942e+03 0.0 0.0 9.0
22  1 1 2   0   0 -1.840425e+03  1.376191e+03 -1.286704e+03  2.633756e+03 0.0 0.0 9.0
 2  1 1 2 103   0  1.840425e+03 -1.376191e+03  7.644437e+02  2.421867e+03 0.0022 0.0 9.0
#pdf 21 2 3.487202e-01 4.290680e-01 5000.0 1.982958e-02 7.236950e-03
</event>
<event>
4 7 1.0 5000.0 7.905138e-03 7.739137e-02
21 -1 0 0 103 101  0.000000e+00  0.000000e+00  3.842577e+03  3.842577e+03 0.0 0.0 9.0
 2 -1 0 0 101   0  0.000000e+00  0.000000e+00 -1.302392e+03  1.302392e+03 0.0 0.0 9.0
22  1 1 2   0   0  1.308841e+03 -2.948936e+02 -7.884108e+02  1.556155e+03 0.0 0.0 9.0
 2  1 1 2 103   0 -1.308841e+03  2.948936e+02  3.328596e+03  3.588813e+03 0.0022 0.0 9.0
#pdf 21 2 5.911657e-01 2.003679e-01 5000.0 7.383180e-04 1.252142e-01
</event>
<event>
4 7 1.0 5000.0 7.905138e-03 7.739137e-02
 2 -1 0 0 101   0  0.000000e+00  0.000000e+00  1.235794e+03  1.235794e+03 0.0 0.0 9.0
21 -1 0 0 103 101  0.000000e+00  0.000000e+00 -4.884645e+03  4.884645e+03 0.0 0.0 9.0
22  1 1 2   0   0 -8.982774e+02 -2.052853e+03 -5.693718e+02  2.311988e+03 0.0 0.0 9.0
 2  1 1 2 103   0  8.982774e+02  2.052853e+03 -3.079479e+03  3.808451e+03 0.0022 0.0 9.0
#pdf 2 21 1.901222e-01 7.514838e-01 5000.0 3.956425e-01 4.140814e-03
</event>
<event>
4 7 1.0 5000.0 7.905138e-03 7.739137e-02
21 -1 0 0 103 101  0.000000e+00  0.000000e+00  1.095008e+03  1.095008e+03 0.0 0.0 9.0
 2 -1 0 0 101   0  0.000000e+00  0.000000e+00 -4.371244e+03  4.371244e+03 0.0 0.0 9.0
 2  1 1 2 103   0 -2.023104e+03  1.955933e+02 -2.649421e+03  3.339257e+03 0.0022 0.0 9.0
22  1 1 2   0   0  2.023104e+03 -1.955933e+02 -6.268153e+02  2.126994e+03 0.0 0.0 9.0
#pdf 21 2 1.684627e-01 6.724991e-01 5000.0 1.916643e-01 1.841136e-04
</event>
<event>
4 7 1.0 5000.0 7.905138e-03 7.739137e-02
21 -1 0 0 103 101  0.000000e+00  0.000000e+00  2.280752e+03  2.280752e+03 0.0 0.0 9.0
 2 -1 0 0 101   0  0.000000e+00  0.000000e+00 -2.721157e+03  2.721157e+03 0.0 0.0 9.0
 2  1 1 2 103   0  1.386829e+02 -1.922265e+03 -1.804948e+03  2.640487e+03 0.0022 0.0 9.0
22  1 1 2   0   0 -1.386829e+02  1.922265e+03  1.364543e+03  2.361422e+03 0.0 0.0 9.0
#pdf 21 2 3.508850e-01 4.186396e-01 5000.0 1.930775e-02 8.272516e-03
</event>
<event>
4 7 1.0 5000.0 7.905138e-03 7.739137e-02
 2 -1 0 0 101   0  0.000000e+00  0.000000e+00  1.802530e+03  1.802530e+03 0.0 0.0 9.0
21 -1 0 0 103 101  0.000000e+00  0.000000e+00 -3.349146e+03  3.349146e+03 0.0 0.0 9.0
 2  1 1 2 103   0  7.829830e+02  2.194459e+03  4.429240e+01  2.330381e+03 0.0022 0.0 9.0
22  1 1 2   0   0 -7.829830e+02 -2.194459e+03 -1.590909e+03  2.821295e+03 0.0 0.0 9.0
#pdf 2 21 2.773122e-01 5.152533e-01 5000.0 2.777186e-01 6.233245e-02
</event>
<event>
4 7 1.0 5000.0 7.905138e-03 7.739137e-02
 2 -1 0 0 101   0  0.000000e+00  0.000000e+00  2.360853e+03  2.360853e+03 0.0 0.0 9.0
21 -1 0 0 103 101  0.000000e+00  0.000000e+00 -2.611792e+03  2.611792e+03 0.0 0.0 9.0
 2  1 1 2 103   0 -1.830480e+03 -3.711359e+02  1.512974e+03  2.403641e+03 0.0022 0.0 9.0
22  1 1 2   0   0  1.830480e+03  3.711359e+02 -1.763913e+03  2.569005e+03 0.0 0.0 9.0
#pdf 2 21 3.632082e-01 4.018142e-01 5000.0 1.778460e-01 1.409579e-01
</event>
<event>
4 7 1.0 5000.0 7.905138e-03 7.739137e-02
21 -1 0 0 103 101  0.000000e+00  0.000000e+00  2.638086e+03  2.638086e+03 0.0 0.0 9.0
 2 -1 0 0 101   0  0.000000e+00  0.000000e+00 -2.342044e+03  2.342044e+03 0.0 0.0 9.0
 2  1 1 2 103   0 -1.577716e+03 -1.911037e+03 -4.535907e+01  2.478570e+03 0.0022 0.0 9.0
22  1 1 2   0   0  1.577716e+03  1.911037e+03  3.414010e+02  2.501561e+03 0.0 0.0 9.0
#pdf 21 2 4.058594e-01 3.603145e-01 5000.0 9.733000e-03 1.718222e-02
</event>
<event>
4 7 1.0 5000.0 7.905138e-03 7.739137e-02
 2 -1 0 0 101   0  0.000000e+00  0.000000e+00  1.715490e+03  1.715490e+03 0.0 0.0 9.0
21 -1 0 0 103 101  0.000000e+00  0.000000e+00 -3.482039e+03  3.482039e+03 0.0 0.0 9.0
22  1 1 2   0   0 -2.085939e+03  3.980356e+02  4.032003e+02  2.161514e+03 0.0 0.0 9.0
 2  1 1 2 103   0  2.085939e+03 -3.980356e+02 -2.169749e+03  3.036014e+03 0.0022 0.0 9.0
#pdf 2 21 2.639215e-01 5.356982e-01 5000.0 2.951434e-01 5.252019e-02
</event>
<event>
4 7 1.0 5000.0 7.905138e-03 7.739137e-02
21 -1 0 0 103 101  0.000000e+00  0.000000e+00  2.245921e+03  2.245921e+03 0.0 0.0 9.0
 2 -1 0 0 101   0  0.000000e+00  0.000000e+00 -2.840511e+03  2.840511e+03 0.0 0.0 9.0
22  1 1 2   0   0  2.426199e+03  3.752294e+01  4.087704e+02  2.460679e+03 0.0 0.0 9.0
 2  1 1 2 103   0 -2.426199e+03 -3.752294e+01 -1.003360e+03  2.625753e+03 0.0022 0.0 9.0
#pdf 21 2 3.455264e-01 4.370017e-01 5000.0 2.062115e-02 6.538843e-03
</event>
<event>
4 7 1.0 5000.0 7.905138e-03 7.739137e-02
21 -1 0 0 103 101  0.000000e+00  0.000000e+00  3.878732e+03  3.878732e+03 0.0 0.0 9.0
 2 -1 0 0 101   0  0.000000e+00  0.000000e+00 -1.610491e+03  1.610491e+03 0.0 0.0 9.0
22  1 1 2   0   0  2.378183e+03 -6.856061e+02  7.523688e+02  2.586865e+03 0.0 0.0 9.0
 2  1 1 2 103   0 -2.378183e+03  6.856061e+02  1.515872e+03  2.902358e+03 0.0022 0.0 9.0
#pdf 21 2 5.967280e-01 2.477678e-01 5000.0 6.760869e-04 6.858350e-02
</event>
<event>
4 7 1.0 5000.0 7.905138e-03 7.739137e-02
21 -1 0 0 103 101  0.000000e+00  0.000000e+00  3.454337e+03  3.454337e+03 0.0 0.0 9.0
 2 -1 0 0 101   0  0.000000e+00  0.000000e+00 -1.831569e+03  1.831569e+03 0.0 0.0 9.0
 2  1 1 2 103   0 -2.427686e+02  1.691670e+03 -1.127843e+03  2.047612e+03 0.0022 0.0 9.0
22  1 1 2   0   0  2.427686e+02 -1.691670e+03  2.750611e+03  3.238293e+03 0.0 0.0 9.0
#pdf 21 2 5.314364e-01 2.817798e-01 5000.0 1.812359e-03 4.502551e-02
</event>
<event>
4 7 1.0 5000.0 7.905138e-03 7.739137e-02
 2 -1 0 0 101   0  0.000000e+00  0.000000e+00  1.646113e+03  1.646113e+03 0.0 0.0 9.0
21 -1 0 0 103 101  0.000000e+00  0.000000e+00 -3.687527e+03  3.687527e+03 0.0 0.0 9.0
 2  1 1 2 103   0  2.430213e+03 -1.858407e+02 -1.410399e+03  2.815972e+03 0.0022 0.0 9.0
22  1 1 2   0   0 -2.430213e+03  1.858407e+02 -6.310150e+02  2.517668e+03 0.0 0.0 9.0
#pdf 2 21 2.532482e-01 5.673119e-01 5000.0 3.092506e-01 3.960958e-02
</event>
<event>
4 7 1.0 5000.0 7.905138e-03 7.739137e-02
21 -1 0 0 103 101  0.000000e+00  0.000000e+00  1.932024e+03  1.932024e+03 0.0 0.0 9.0
 2 -1 0 0 101   0  0.000000e+00  0.000000e+00 -3.152196e+03  3.152196e+03 0.0 0.0 9.0
 2  1 1 2 103   0  5.953072e+02  2.362174e+03 -2.034093e+02  2.444511e+03 0.0022 0.0 9.0
22  1 1 2   0   0 -5.953072e+02 -2.362174e+03 -1.016763e+03  2.639709e+03 0.0 0.0 9.0
#pdf 21 2 2.972344e-01 4.849533e-01 5000.0 3.728768e-02 3.461645e-03
</event>
<event>
4 7 1.0 5000.0 7.905138e-03 7.739137e-02
21 -1 0 0 103 101  0.000000e+00  0.000000e+00  2.964674e+03  2.964674e+03 0.0 0.0 9.0
 2 -1 0 0 101   0  0.000000e+00  0.000000e+00 -1.565751e+03  1.565751e+03 0.0 0.0 9.0
 2  1 1 2 103   0  2.715744e+02  1.500895e+03  2.299321e+03  2.759224e+03 0.0022 0.0 9.0
22  1 1 2   0   0 -2.715744e+02 -1.500895e+03 -9.003980e+02  1.771201e+03 0.0 0.0 9.0
#pdf 21 2 4.561038e-01 2.408848e-01 5000.0 5.093067e-03 7.478185e-02
</event>
<event>
4 7 1.0 5000.0 7.905138e-03 7.739137e-02
21 -1 0 0 103 101  0.000000e+00  0.000000e+00  2.425332e+03  2.425332e+03 0.0 0.0 9.0
 2 -1 0 0 101   0  0.000000e+00  0.000000e+00 -2.589140e+03  2.589140e+03 0.0 0.0 9.0
 2  1 1 2 103   0 -5.610006e+02  2.294249e+03 -9.197430e+02  2.534606e+03 0.0022 0.0 9.0
22  1 1 2   0   0  5.610006e+02 -2.294249e+03  7.559352e+02  2.479866e+03 0.0 0.0 9.0
#pdf 21 2 3.731280e-01 3.983292e-01 5000.0 1.466440e-02 1.070225e-02
</event>
<event>
4 7 1.0 5000.0 7.905138e-03 7.739137e-02
21 -1 0 0 103 101  0.000000e+00  0.000000e+00  2.894142e+03  2.894142e+03 0.0 0.0 9.0
 2 -1 0 0 101   0  0.000000e+00  0.000000e+00 -2.150386e+03  2.150386e+03 0.0 0.0 9.0
22  1 1 2   0   0 -1.816389e+03  1.542339e+03 -3.748234e+02  2.412172e+03 0.0 0.0 9.0
 2  1 1 2 103   0  1.816389e+03 -1.542339e+03  1.118579e+03  2.632356e+03 0.0022 0.0 9.0
#pdf 21 2 4.452526e-01 3.308286e-01 5000.0 5.867734e-03 2.469436e-02
</event>
<event>
4 7 1.0 5000.0 7.905138e-03 7.739137e-02
21 -1 0 0 103 101  0.000000e+00  0.000000e+00  3.696199e+03  3.696199e+03 0.0 0.0 9.0
 2 -1 0 0 101   0  0.000000e+00  0.000000e+00 -1.679332e+03  1.679332e+03 0.0 0.0 9.0
 2  1 1 2 103   0  1.719350e+03  2.195938e+02 -9.222348e+02  1.963390e+03 0.0022 0.0 9.0
22  1 1 2   0   0 -1.719350e+03 -2.195938e+02  2.939101e+03  3.412140e+03 0.0 0.0 9.0
#pdf 21 2 5.686459e-01 2.583588e-01 5000.0 1.046441e-03 6.013217e-02
</event>
<event>
4 7 1.0 5000.0 7.905138e-03 7.739137e-02
21 -1 0 0 103 101  0.000000e+00  0.000000e+00  3.507696e+03  3.507696e+03 0.0 0.0 9.0
 2 -1 0 0 101   0  0.000000e+00  0.000000e+00 -1.329483e+03  1.329483e+03 0.0 0.0 9.0
 2  1 1 2 103   0  4.997986e+02 -2.023167e+03  4.551346e+02  2.133108e+03 0.0022 0.0 9.0
22  1 1 2   0   0 -4.997986e+02  2.023167e+03  1.723078e+03  2.704071e+03 0.0 0.0 9.0
#pdf 21 2 5.396455e-01 2.045359e-01 5000.0 1.608012e-03 1.185521e-01
</event>
<event>
4 7 1.0 5000.0 7.905138e-03 7.739137e-02
21 -1 0 0 103 101  0.000000e+00  0.000000e+00  4.121938e+03  4.121938e+03 0.0 0.0 9.0
 2 -1 0 0 101   0  0.000000e+00  0.000000e+00 -1.521181e+03  1.521181e+03 0.0 0.0 9.0
 2  1 1 2 103   0 -2.382742e+03 -2.113649e+02  2.134577e+03  3.206018e+03 0.0022 0.0 9.0
22  1 1 2   0   0  2.382742e+03  2.113649e+02  4.661805e+02  2.437101e+03 0.0 0.0 9.0
#pdf 21 2 6.341443e-01 2.340278e-01 5000.0 3.649363e-04 8.144745e-02
</event>
<event>
4 7 1.0 5000.0 7.905138e-03 7.739137e-02
21 -1 0 0 103 101  0.000000e+00  0.000000e+00  1.993142e+03  1.993142e+03 0.0 0.0 9.0
 2 -1 0 0 101   0  0.000000e+00  0.000000e+00 -2.778178e+03  2.778178e+03 0.0 0.0 9.0
22  1 1 2   0   0 -7.573437e+01 -1.017094e+03  1.757416e+03  2.031927e+03 0.0 0.0 9.0
 2  1 1 2 103   0  7.573437e+01  1.017094e+03 -2.542452e+03  2.739394e+03 0.0022 0.0 9.0
#pdf 21 2 3.066373e-01 4.274121e-01 5000.0 3.324236e-02 7.392736e-03
</event>
<event>
4 7 1.0 5000.0 7.905138e-03 7.739137e-02
 2 -1 0 0 101   0  0.000000e+00  0.000000e+00  2.580645e+03  2.580645e+03 0.0 0.0 9.0
21 -1 0 0 103 101  0.000000e+00  0.000000e+00 -2.477882e+03  2.477882e+03 0.0 0.0 9.0
 2  1 1 2 103   0  1.275603e+03  1.788983e+03  1.303402e+03  2.554698e+03 0.0022 0.0 9.0
22  1 1 2   0   0 -1.275603e+03 -1.788983e+03 -1.200640e+03  2.503829e+03 0.0 0.0 9.0
#pdf 2 21 3.970222e-01 3.812126e-01 5000.0 1.452575e-01 1.599955e-01
</event>
<event>
4 7 1.0 5000.0 7.905138e-03 7.739137e-02
21 -1 0 0 103 101  0.000000e+00  0.000000e+00  3.529279e+03  3.529279e+03 0.0 0.0 9.0
 2 -1 0 0 101   0  0.000000e+00  0.000000e+00 -1.750999e+03  1.750999e+03 0.0 0.0 9.0
22  1 1 2   0   0 -9.825045e+02  2.266447e+03  5.931604e+02  2.540460e+03 0.0 0.0 9.0
 2  1 1 2 103   0  9.825045e+02 -2.266447e+03  1.185120e+03  2.739819e+03 0.0022 0.0 9.0
#pdf 21 2 5.429660e-01 2.693845e-01 5000.0 1.532667e-03 5.244119e-02
</event>
<event>
4 7 1.0 5000.0 7.905138e-03 7.739137e-02
21 -1 0 0 103 101  0.000000e+00  0.000000e+00  3.189615e+03  3.189615e+03 0.0 0.0 9.0
 2 -1 0 0 101   0  0.000000e+00  0.000000e+00 -1.795031e+03  1.795031e+03 0.0 0.0 9.0
22  1 1 2   0   0 -6.100142e+02 -2.149180e+03 -1.953064e+02  2.242596e+03 0.0 0.0 9.0
 2  1 1 2 103   0  6.100142e+02  2.149180e+03  1.589890e+03  2.742050e+03 0.0022 0.0 9.0
#pdf 21 2 4.907100e-01 2.761587e-01 5000.0 3.201385e-03 4.825193e-02
</event>
<event>
4 7 1.0 5000.0 7.905138e-03 7.739137e-02
 2 -1 0 0 101   0  0.000000e+00  0.000000e+00  5.363701e+03  5.363701e+03 0.0 0.0 9.0
21 -1 0 0 103 101  0.000000e+00  0.000000e+00 -1.157940e+03  1.157940e+03 0.0 0.0 9.0
22  1 1 2   0   0 -2.230216e+03  9.352473e+02  2.890438e+03  3.768711e+03 0.0 0.0 9.0
 2  1 1 2 103   0  2.230216e+03 -9.352473e+02  1.315324e+03  2.752931e+03 0.0022 0.0 9.0
#pdf 2 21 8.251848e-01 1.781446e-01 5000.0 9.787762e-04 4.119866e-01
</event>
<event>
4 7 1.0 5000.0 7.905138e-03 7.739137e-02
21 -1 0 0 103 101  0.000000e+00  0.000000e+00  1.086094e+03  1.086094e+03 0.0 0.0 9.0
 2 -1 0 0 101   0  0.000000e+00  0.000000e+00 -5.427686e+03  5.427686e+03 0.0 0.0 9.0
 2  1 1 2 103   0  1.959262e+03  7.317119e+02 -3.825072e+03  4.359505e+03 0.0022 0.0 9.0
22  1 1 2   0   0 -1.959262e+03 -7.317119e+02 -5.165196e+02  2.154275e+03 0.0 0.0 9.0
#pdf 21 2 1.670914e-01 8.350286e-01 5000.0 1.953467e-01 3.491365e-06
</event>
<event>
4 7 1.0 5000.0 7.905138e-03 7.739137e-02
 2 -1 0 0 101   0  0.000000e+00  0.000000e+00  2.369709e+03  2.369709e+03 0.0 0.0 9.0
21 -1 0 0 103 101  0.000000e+00  0.000000e+00 -2.614595e+03  2.614595e+03 0.0 0.0 9.0
 2  1 1 2 103   0 -1.391029e+03 -4.224131e+02 -2.145389e+03  2.591542e+03 0.0022 0.0 9.0
22  1 1 2   0   0  1.391029e+03  4.224131e+02  1.900503e+03  2.392762e+03 0.0 0.0 9.0
#pdf 2 21 3.645706e-01 4.022453e-01 5000.0 1.764538e-01 1.405750e-01
</event>
<event>
4 7 1.0 5000.0 7.905138e-03 7.739137e-02
 2 -1 0 0 101   0  0.000000e+00  0.000000e+00  2.228660e+03  2.228660e+03 0.0 0.0 9.0
21 -1 0 0 103 101  0.000000e+00  0.000000e+00 -2.774977e+03  2.774977e+03 0.0 0.0 9.0
22  1 1 2   0   0  1.428402e+03  1.916132e+03 -9.647419e+02  2.577328e+03 0.0 0.0 9.0
 2  1 1 2 103   0 -1.428402e+03 -1.916132e+03  4.184252e+02  2.426308e+03 0.0022 0.0 9.0
#pdf 2 21 3.428708e-01 4.269195e-01 5000.0 1.993812e-01 1.197742e-01
</event>
<event>
4 7 1.0 5000.0 7.905138e-03 7.739137e-02
21 -1 0 0 103 101  0.000000e+00  0.000000e+00  1.961819e+03  1.961819e+03 0.0 0.0 9.0
 2 -1 0 0 101   0  0.000000e+00  0.000000e+00 -3.259387e+03  3.259387e+03 0.0 0.0 9.0
22  1 1 2   0   0  9.081193e+02  1.551753e+03 -2.484495e+03  3.066812e+03 0.0 0.0 9.0
 2  1 1 2 103   0 -9.081193e+02 -1.551753e+03  1.186927e+03  2.154394e+03 0.0022 0.0 9.0
#pdf 21 2 3.018183e-01 5.014442e-01 5000.0 3.523486e-02 2.762508e-03
</event>
<event>
4 7 1.0 5000.0 7.905138e-03 7.739137e-02
 2 -1 0 0 101   0  0.000000e+00  0.000000e+00  3.894274e+03  3.894274e+03 0.0 0.0 9.0
21 -1 0 0 103 101  0.000000e+00  0.000000e+00 -1.617105e+03  1.617105e+03 0.0 0.0 9.0
22  1 1 2   0   0 -4.125544e+02 -1.690445e+03  3.124214e+03  3.576104e+03 0.0 0.0 9.0
 2  1 1 2 103   0  4.125544e+02  1.690445e+03 -8.470446e+02  1.935275e+03 0.0022 0.0 9.0
#pdf 2 21 5.991191e-01 2.487854e-01 5000.0 2.912013e-02 3.152363e-01
</event>
<event>
4 7 1.0 5000.0 7.905138e-03 7.739137e-02
21 -1 0 0 103 101  0.000000e+00  0.000000e+00  2.771409e+03  2.771409e+03 0.0 0.0 9.0
 2 -1 0 0 101   0  0.000000e+00  0.000000e+00 -1.978117e+03  1.978117e+03 0.0 0.0 9.0
22  1 1 2   0   0 -1.371299e+03 -6.683234e+01  2.320309e+03  2.696064e+03 0.0 0.0 9.0
 2  1 1 2 103   0  1.371299e+03  6.683234e+01 -1.527017e+03  2.053463e+03 0.0022 0.0 9.0
#pdf 21 2 4.263706e-01 3.043257e-01 5000.0 7.492787e-03 3.419022e-02
</event>
<event>
4 7 1.0 5000.0 7.905138e-03 7.739137e-02
21 -1 0 0 103 101  0.000000e+00  0.000000e+00  1.413151e+03  1.413151e+03 0.0 0.0 9.0
 2 -1 0 0 101   0  0.000000e+00  0.000000e+00 -4.462273e+03  4.462273e+03 0.0 0.0 9.0
 2  1 1 2 103   0 -1.225196e+03 -1.994526e+03 -2.588193e+03  3.489697e+03 0.0022 0.0 9.0
22  1 1 2   0   0  1.225196e+03  1.994526e+03 -4.609281e+02  2.385727e+03 0.0 0.0 9.0
#pdf 21 2 2.174079e-01 6.865035e-01 5000.0 1.005606e-01 1.412256e-04
</event>
<event>
4 7 1.0 5000.0 7.905138e-03 7.739137e-02
 2 -1 0 0 101   0  0.000000e+00  0.000000e+00  3.333926e+03  3.333926e+03 0.0 0.0 9.0
21 -1 0 0 103 101  0.000000e+00  0.000000e+00 -1.793781e+03  1.793781e+03 0.0 0.0 9.0
 2  1 1 2 103   0  2.163793e+03 -1.135774e+02  1.958727e+03  2.920875e+03 0.0022 0.0 9.0
22  1 1 2   0   0 -2.163793e+03  1.135774e+02 -4.185825e+02  2.206832e+03 0.0 0.0 9.0
#pdf 2 21 5.129117e-01 2.759664e-01 5000.0 6.353384e-02 2.794514e-01
</event>
<event>
4 7 1.0 5000.0 7.905138e-03 7.739137e-02
21 -1 0 0 103 101  0.000000e+00  0.000000e+00  1.324009e+03  1.324009e+03 0.0 0.0 9.0
 2 -1 0 0 101   0  0.000000e+00  0.000000e+00 -4.468995e+03  4.468995e+03 0.0 0.0 9.0
22  1 1 2   0   0  1.768743e+03 -1.260443e+03 -2.681813e+02  2.188399e+03 0.0 0.0 9.0
 2  1 1 2 103   0 -1.768743e+03  1.260443e+03 -2.876804e+03  3.604604e+03 0.0022 0.0 9.0
#pdf 21 2 2.036937e-01 6.875376e-01 5000.0 1.198667e-01 1.384449e-04
</event>
<event>
4 7 1.0 5000.0 7.905138e-03 7.739137e-02
 2 -1 0 0 101   0  0.000000e+00  0.000000e+00  3.768554e+03  3.768554e+03 0.0 0.0 9.0
21 -1 0 0 103 101  0.000000e+00  0.000000e+00 -1.659423e+03  1.659423e+03 0.0 0.0 9.0
 2  1 1 2 103   0 -2.711629e+02  1.164351e+03 -1.329197e+03  1.787738e+03 0.0022 0.0 9.0
22  1 1 2   0   0  2.711629e+02 -1.164351e+03  3.438327e+03  3.640239e+03 0.0 0.0 9.0
#pdf 2 21 5.797775e-01 2.552959e-01 5000.0 3.521065e-02 3.065258e-01
</event>
<event>
4 7 1.0 5000.0 7.905138e-03 7.739137e-02
21 -1 0 0 103 101  0.000000e+00  0.000000e+00  1.997514e+03  1.997514e+03 0.0 0.0 9.0
 2 -1 0 0 101   0  0.000000e+00  0.000000e+00 -3.111577e+03  3.111577e+03 0.0 0.0 9.0
 2  1 1 2 103   0 -4.032844e+02 -1.428619e+03  1.495309e+03  2.107022e+03 0.0022 0.0 9.0
22  1 1 2   0   0  4.032844e+02  1.428619e+03 -2.609373e+03  3.002069e+03 0.0 0.0 9.0
#pdf 21 2 3.073098e-01 4.787042e-01 5000.0 3.296979e-02 3.767865e-03
</event>
<event>
4 7 1.0 5000.0 7.905138e-03 7.739137e-02
 2 -1 0 0 101   0  0.000000e+00  0.000000e+00  4.734211e+03  4.734211e+03 0.0 0.0 9.0
21 -1 0 0 103 101  0.000000e+00  0.000000e+00 -1.328739e+03  1.328739e+03 0.0 0.0 9.0
 2  1 1 2 103   0  1.307607e+02  1.247863e+03 -9.221457e+02  1.557117e+03 0.0022 0.0 9.0
22  1 1 2   0   0 -1.307607e+02 -1.247863e+03  4.327618e+03  4.505834e+03 0.0 0.0 9.0
#pdf 2 21 7.283402e-01 2.044214e-01 5000.0 5.964516e-03 3.759430e-01
</event>
<event>
4 7 1.0 5000.0 7.905138e-03 7.739137e-02
21 -1 0 0 103 101  0.000000e+00  0.000000e+00  4.190518e+03  4.190518e+03 0.0 0.0 9.0
 2 -1 0 0 101   0  0.000000e+00  0.000000e+00 -1.533995e+03  1.533995e+03 0.0 0.0 9.0
22  1 1 2   0   0 -1.071185e+03  5.229689e+02 -1.197920e+03  1.689954e+03 0.0 0.0 9.0
 2  1 1 2 103   0  1.071185e+03 -5.229689e+02  3.854442e+03  4.034558e+03 0.0022 0.0 9.0
#pdf 21 2 6.446950e-01 2.359992e-01 5000.0 3.040732e-04 7.947979e-02
</event>
<event>
4 7 1.0 5000.0 7.905138e-03 7.739137e-02
 2 -1 0 0 101   0  0.000000e+00  0.000000e+00  2.515243e+03  2.515243e+03 0.0 0.0 9.0
21 -1 0 0 103 101  0.000000e+00  0.000000e+00 -2.516127e+03  2.516127e+03 0.0 0.0 9.0
22  1 1 2   0   0 -2.222499e+03  7.486286e+02  9.099022e+02  2.515525e+03 0.0 0.0 9.0
 2  1 1 2 103   0  2.222499e+03 -7.486286e+02 -9.107856e+02  2.515845e+03 0.0022 0.0 9.0
#pdf 2 21 3.869605e-01 3.870964e-01 5000.0 1.545354e-01 1.544077e-01
</event>
<event>
4 7 1.0 5000.0 7.905138e-03 7.739137e-02
 2 -1 0 0 101   0  0.000000e+00  0.000000e+00  1.892767e+03  1.892767e+03 0.0 0.0 9.0
21 -1 0 0 103 101  0.000000e+00  0.000000e+00 -3.254358e+03  3.254358e+03 0.0 0.0 9.0
 2  1 1 2 103   0  1.200489e+03  1.151154e+03 -2.590965e+03  3.078868e+03 0.0022 0.0 9.0
22  1 1 2   0   0 -1.200489e+03 -1.151154e+03  1.229373e+03  2.068257e+03 0.0 0.0 9.0
#pdf 2 21 2.911949e-01 5.006705e-01 5000.0 2.600985e-01 7.008261e-02
</event>
<event>
4 7 1.0 5000.0 7.905138e-03 7.739137e-02
21 -1 0 0 103 101  0.000000e+00  0.000000e+00  1.729270e+03  1.729270e+03 0.0 0.0 9.0
 2 -1 0 0 101   0  0.000000e+00  0.000000e+00 -3.417696e+03  3.417696e+03 0.0 0.0 9.0
 2  1 1 2 103   0 -1.431050e+03  8.876816e+02  1.011846e+03  1.964616e+03 0.0022 0.0 9.0
22  1 1 2   0   0  1.431050e+03 -8.876816e+02 -2.700272e+03  3.182350e+03 0.0 0.0 9.0
#pdf 21 2 2.660415e-01 5.257994e-01 5000.0 5.464737e-02 1.963917e-03
</event>
<event>
4 7 1.0 5000.0 7.905138e-03 7.739137e-02
21 -1 0 0 103 101  0.000000e+00  0.000000e+00  4.421702e+03  4.421702e+03 0.0 0.0 9.0
 2 -1 0 0 101   0  0.000000e+00  0.000000e+00 -1.368746e+03  1.368746e+03 0.0 0.0 9.0
 2  1 1 2 103   0 -1.250116e+03 -2.111876e+03  1.728191e+03  3.001575e+03 0.0022 0.0 9.0
22  1 1 2   0   0  1.250116e+03  2.111876e+03  1.324765e+03  2.788873e+03 0.0 0.0 9.0
#pdf 21 2 6.802618e-01 2.105763e-01 5000.0 1.589341e-04 1.097134e-01
</event>
<event>
4 7 1.0 5000.0 7.905138e-03 7.739137e-02
21 -1 0 0 103 101  0.000000e+00  0.000000e+00  2.462690e+03  2.462690e+03 0.0 0.0 9.0
 2 -1 0 0 101   0  0.000000e+00  0.000000e+00 -2.453022e+03  2.453022e+03 0.0 0.0 9.0
22  1 1 2   0   0  4.963786e+02  1.130159e+03 -2.120583e+03  2.453676e+03 0.0 0.0 9.0
 2  1 1 2 103   0 -4.963786e+02 -1.130159e+03  2.130251e+03  2.462036e+03 0.0022 0.0 9.0
#pdf 21 2 3.788754e-01 3.773880e-01 5000.0 1.366567e-02 1.391974e-02
</event>
<event>
4 7 1.0 5000.0 7.905138e-03 7.739137e-02
 2 -1 0 0 101   0  0.000000e+00  0.000000e+00  2.185985e+03  2.185985e+03 0.0 0.0 9.0
21 -1 0 0 103 101  0.000000e+00  0.000000e+00 -2.032742e+03  2.032742e+03 0.0 0.0 9.0
 2  1 1 2 103   0  1.909219e+03  5.294151e+02 -6.436784e+02  2.083199e+03 0.0022 0.0 9.0
22  1 1 2   0   0 -1.909219e+03 -5.294151e+02  7.969220e+02  2.135528e+03 0.0 0.0 9.0
#pdf 2 21 3.363054e-01 3.127295e-01 5000.0 2.066288e-01 2.338083e-01
</event>
<event>
4 7 1.0 5000.0 7.905138e-03 7.739137e-02
 2 -1 0 0 101   0  0.000000e+00  0.000000e+00  1.550370e+03  1.550370e+03 0.0 0.0 9.0
21 -1 0 0 103 101  0.000000e+00  0.000000e+00 -3.886234e+03  3.886234e+03 0.0 0.0 9.0
22  1 1 2   0   0 -1.230060e+03  1.990834e+03 -1.988200e+03  3.070734e+03 0.0 0.0 9.0
 2  1 1 2 103   0  1.230060e+03 -1.990834e+03 -3.476636e+02  2.365869e+03 0.0022 0.0 9.0
#pdf 2 21 2.385184e-01 5.978821e-01 5000.0 3.290776e-01 2.948412e-02
</event>
<event>
4 7 1.0 5000.0 7.905138e-03 7.739137e-02
21 -1 0 0 103 101  0.000000e+00  0.000000e+00  2.007776e+03  2.007776e+03 0.0 0.0 9.0
 2 -1 0 0 101   0  0.000000e+00  0.000000e+00 -3.339782e+03  3.339782e+03 0.0 0.0 9.0
 2  1 1 2 103   0  5.777510e+02 -4.321020e+02 -3.233912e+03  3.313411e+03 0.0022 0.0 9.0
22  1 1 2   0   0 -5.777510e+02  4.321020e+02  1.901906e+03  2.034147e+03 0.0 0.0 9.0
#pdf 21 2 3.088887e-01 5.138126e-01 5000.0 3.233612e-02 2.326253e-03
</event>
<event>
4 7 1.0 5000.0 7.905138e-03 7.739137e-02
21 -1 0 0 103 101  0.000000e+00  0.000000e+00  3.883121e+03  3.883121e+03 0.0 0.0 9.0
 2 -1 0 0 101   0  0.000000e+00  0.000000e+00 -1.542858e+03  1.542858e+03 0.0 0.0 9.0
 2  1 1 2 103   0 -1.746403e+03 -5.067859e+02 -6.458605e+02  1.929739e+03 0.0022 0.0 9.0
22  1 1 2   0   0  1.746403e+03  5.067859e+02  2.986123e+03  3.496239e+03 0.0 0.0 9.0
#pdf 21 2 5.974032e-01 2.373627e-01 5000.0 6.688908e-04 7.814565e-02
</event>
<event>
4 7 1.0 5000.0 7.905138e-03 7.739137e-02
21 -1 0 0 103 101  0.000000e+00  0.000000e+00  3.123307e+03  3.123307e+03 0.0 0.0 9.0
 2 -1 0 0 101   0  0.000000e+00  0.000000e+00 -1.882219e+03  1.882219e+03 0.0 0.0 9.0
22  1 1 2   0   0 -9.931049e+01  1.550274e+03  2.542142e+03  2.979211e+03 0.0 0.0 9.0
 2  1 1 2 103   0  9.931049e+01 -1.550274e+03 -1.301054e+03  2.026315e+03 0.0022 0.0 9.0
#pdf 21 2 4.805087e-01 2.895722e-01 5000.0 3.676911e-03 4.095076e-02
</event>
<event>
4 7 1.0 5000.0 7.905138e-03 7.739137e-02
21 -1 0 0 103 101  0.000000e+00  0.000000e+00  2.150924e+03  2.150924e+03 0.0 0.0 9.0
 2 -1 0 0 101   0  0.000000e+00  0.000000e+00 -2.671811e+03  2.671811e+03 0.0 0.0 9.0
22  1 1 2   0   0  1.591201e+03  1.297193e+03 -1.505560e+03  2.545848e+03 0.0 0.0 9.0
 2  1 1 2 103   0 -1.591201e+03 -1.297193e+03  9.846725e+02  2.276886e+03 0.0022 0.0 9.0
#pdf 21 2 3.309113e-01 4.110478e-01 5000.0 2.466935e-02 9.111424e-03
</event>
<event>
4 7 1.0 5000.0 7.905138e-03 7.739137e-02
21 -1 0 0 103 101  0.000000e+00  0.000000e+00  2.118755e+03  2.118755e+03 0.0 0.0 9.0
 2 -1 0 0 101   0  0.000000e+00  0.000000e+00 -2.975861e+03  2.975861e+03 0.0 0.0 9.0
 2  1 1 2 103   0 -1.126421e+03 -9.332032e+02 -2.499002e+03  2.895636e+03 0.0022 0.0 9.0
22  1 1 2   0   0  1.126421e+03  9.332032e+02  1.641897e+03  2.198981e+03 0.0 0.0 9.0
#pdf 21 2 3.259623e-01 4.578248e-01 5000.0 2.620942e-02 4.977758e-03
</event>
<event>
4 7 1.0 5000.0 7.905138e-03 7.739137e-02
 2 -1 0 0 101   0  0.000000e+00  0.000000e+00  1.181983e+03  1.181983e+03 0.0 0.0 9.0
21 -1 0 0 103 101  0.000000e+00  0.000000e+00 -5.348191e+03  5.348191e+03 0.0 0.0 9.0
 2  1 1 2 103   0  5.725741e+02 -8.009892e+02  9.212118e+02  1.348353e+03 0.0022 0.0 9.0
22  1 1 2   0   0 -5.725741e+02  8.009892e+02 -5.087420e+03  5.181821e+03 0.0 0.0 9.0
#pdf 2 21 1.818435e-01 8.227987e-01 5000.0 4.069245e-01 1.034225e-03
</event>
<event>
4 7 1.0 5000.0 7.905138e-03 7.739137e-02
21 -1 0 0 103 101  0.000000e+00  0.000000e+00  3.133819e+03  3.133819e+03 0.0 0.0 9.0
 2 -1 0 0 101   0  0.000000e+00  0.000000e+00 -1.424525e+03  1.424525e+03 0.0 0.0 9.0
 2  1 1 2 103   0 -2.105669e+03  6.159574e+01  6.788096e+02  2.213237e+03 0.0022 0.0 9.0
22  1 1 2   0   0  2.105669e+03 -6.159574e+01  1.030484e+03  2.345108e+03 0.0 0.0 9.0
#pdf 21 2 4.821260e-01 2.191578e-01 5000.0 3.597051e-03 9.833195e-02
</event>
<event>
4 7 1.0 5000.0 7.905138e-03 7.739137e-02
21 -1 0 0 103 101  0.000000e+00  0.000000e+00  3.875906e+03  3.875906e+03 0.0 0.0 9.0
 2 -1 0 0 101   0  0.000000e+00  0.000000e+00 -1.755827e+03  1.755827e+03 0.0 0.0 9.0
 2  1 1 2 103   0  3.506656e+02  2.489782e+03  3.095332e+02  2.533336e+03 0.0022 0.0 9.0
22  1 1 2   0   0 -3.506656e+02 -2.489782e+03  1.810546e+03  3.098396e+03 0.0 0.0 9.0
#pdf 21 2 5.962932e-01 2.701272e-01 5000.0 6.807591e-04 5.196413e-02
</event>
<event>
4 7 1.0 5000.0 7.905138e-03 7.739137e-02
 2 -1 0 0 101   0  0.000000e+00  0.000000e+00  3.312267e+03  3.312267e+03 0.0 0.0 9.0
21 -1 0 0 103 101  0.000000e+00  0.000000e+00 -1.877523e+03  1.877523e+03 0.0 0.0 9.0
22  1 1 2   0   0 -4.174444e+02 -1.024235e+03 -1.608339e+03  1.951940e+03 0.0 0.0 9.0
 2  1 1 2 103   0  4.174444e+02  1.024235e+03  3.043083e+03  3.237850e+03 0.0022 0.0 9.0
#pdf 2 21 5.095796e-01 2.888497e-01 5000.0 6.527167e-02 2.630450e-01
</event>
<event>
4 7 1.0 5000.0 7.905138e-03 7.739137e-02
 2 -1 0 0 101   0  0.000000e+00  0.000000e+00  2.363360e+03  2.363360e+03 0.0 0.0 9.0
21 -1 0 0 103 101  0.000000e+00  0.000000e+00 -2.615804e+03  2.615804e+03 0.0 0.0 9.0
22  1 1 2   0   0  6.840023e+02 -7.006649e+02  2.162174e+03  2.373560e+03 0.0 0.0 9.0
 2  1 1 2 103   0 -6.840023e+02  7.006649e+02 -2.414618e+03  2.605604e+03 0.0022 0.0 9.0
#pdf 2 21 3.635938e-01 4.024313e-01 5000.0 1.774514e-01 1.404100e-01
</event>
<event>
4 7 1.0 5000.0 7.905138e-03 7.739137e-02
 2 -1 0 0 101   0  0.000000e+00  0.000000e+00  2.879007e+03  2.879007e+03 0.0 0.0 9.0
21 -1 0 0 103 101  0.000000e+00  0.000000e+00 -2.147718e+03  2.147718e+03 0.0 0.0 9.0
22  1 1 2   0   0 -5.794903e+02 -1.894900e+03 -1.152788e+03  2.292461e+03 0.0 0.0 9.0
 2  1 1 2 103   0  5.794903e+02  1.894900e+03  1.884077e+03  2.734265e+03 0.0022 0.0 9.0
#pdf 2 21 4.429242e-01 3.304182e-01 5000.0 1.074405e-01 2.132492e-01
</event>
<event>
4 7 1.0 5000.0 7.905138e-03 7.739137e-02
 2 -1 0 0 101   0  0.000000e+00  0.000000e+00  2.687607e+03  2.687607e+03 0.0 0.0 9.0
21 -1 0 0 103 101  0.000000e+00  0.000000e+00 -2.346437e+03  2.346437e+03 0.0 0.0 9.0
22  1 1 2   0   0  1.347069e+03  1.544583e+03 -1.283954e+03  2.418444e+03 0.0 0.0 9.0
 2  1 1 2 103   0 -1.347069e+03 -1.544583e+03  1.625125e+03  2.615600e+03 0.0022 0.0 9.0
#pdf 2 21 4.134780e-01 3.609902e-01 5000.0 1.308400e-01 1.801255e-01
</event>
<event>
4 7 1.0 5000.0 7.905138e-03 7.739137e-02
 2 -1 0 0 101   0  0.000000e+00  0.000000e+00  2.649857e+03  2.649857e+03 0.0 0.0 9.0
21 -1 0 0 103 101  0.000000e+00  0.000000e+00 -2.336678e+03  2.336678e+03 0.0 0.0 9.0
 2  1 1 2 103   0 -1.566907e+03 -1.791931e+03  8.830393e+02  2.538892e+03 0.0022 0.0 9.0
22  1 1 2   0   0  1.566907e+03  1.791931e+03 -5.698608e+02  2.447643e+03 0.0 0.0 9.0
#pdf 2 21 4.076702e-01 3.594889e-01 5000.0 1.358161e-01 1.816779e-01
</event>
<event>
4 7 1.0 5000.0 7.905138e-03 7.739137e-02
 2 -1 0 0 101   0  0.000000e+00  0.000000e+00  3.165510e+03  3.165510e+03 0.0 0.0 9.0
21 -1 0 0 103 101  0.000000e+00  0.000000e+00 -1.976665e+03  1.976665e+03 0.0 0.0 9.0
22  1 1 2   0   0  1.473750e+03  3.263703e+02  2.644635e+03  3.045087e+03 0.0 0.0 9.0
 2  1 1 2 103   0 -1.473750e+03 -3.263703e+02 -1.455789e+03  2.097088e+03 0.0022 0.0 9.0
#pdf 2 21 4.870016e-01 3.041022e-01 5000.0 7.794250e-02 2.441828e-01
</event>
<event>
4 7 1.0 5000.0 7.905138e-03 7.739137e-02
21 -1 0 0 103 101  0.000000e+00  0.000000e+00  2.944552e+03  2.944552e+03 0.0 0.0 9.0
 2 -1 0 0 101   0  0.000000e+00  0.000000e+00 -1.948430e+03  1.948430e+03 0.0 0.0 9.0
22  1 1 2   0   0  1.232277e+03  5.898030e+02 -1.511477e+03  2.037385e+03 0.0 0.0 9.0
 2  1 1 2 103   0 -1.232277e+03 -5.898030e+02  2.507599e+03  2.855596e+03 0.0022 0.0 9.0
#pdf 21 2 4.530079e-01 2.997584e-01 5000.0 5.305672e-03 3.612088e-02
</event>
<event>
4 7 1.0 5000.0 7.905138e-03 7.739137e-02
21 -1 0 0 103 101  0.000000e+00  0.000000e+00  1.501420e+03  1.501420e+03 0.0 0.0 9.0
 2 -1 0 0 101   0  0.000000e+00  0.000000e+00 -4.218318e+03  4.218318e+03 0.0 0.0 9.0
22  1 1 2   0   0  6.200392e+02 -2.053550e+03  1.370733e+02  2.149489e+03 0.0 0.0 9.0
 2  1 1 2 103   0 -6.200392e+02  2.053550e+03 -2.853972e+03  3.570248e+03 0.0022 0.0 9.0
#pdf 21 2 2.309876e-01 6.489720e-01 5000.0 8.458808e-02 2.820389e-04
</event>
<event>
4 7 1.0 5000.0 7.905138e-03 7.739137e-02
21 -1 0 0 103 101  0.000000e+00  0.000000e+00  2.575760e+03  2.575760e+03 0.0 0.0 9.0
 2 -1 0 0 101   0  0.000000e+00  0.000000e+00 -2.380281e+03  2.380281e+03 0.0 0.0 9.0
22  1 1 2   0   0 -1.817441e+03 -4.445763e+02 -1.525342e+03  2.414002e+03 0.0 0.0 9.0
 2  1 1 2 103   0  1.817441e+03  4.445763e+02  1.720820e+03  2.542039e+03 0.0022 0.0 9.0
#pdf 21 2 3.962707e-01 3.661971e-01 5000.0 1.098265e-02 1.598069e-02
</event>
<event>
4 7 1.0 5000.0 7.905138e-03 7.739137e-02
21 -1 0 0 103 101  0.000000e+00  0.000000e+00  2.411352e+03  2.411352e+03 0.0 0.0 9.0
 2 -1 0 0 101   0  0.000000e+00  0.000000e+00 -2.586445e+03  2.586445e+03 0.0 0.0 9.0
 2  1 1 2 103   0  1.569591e+03  6.404616e+02  1.747435e+03  2.434612e+03 0.0022 0.0 9.0
22  1 1 2   0   0 -1.569591e+03 -6.404616e+02 -1.922527e+03  2.563185e+03 0.0 0.0 9.0
#pdf 21 2 3.709773e-01 3.979146e-01 5000.0 1.505274e-02 1.075816e-02
</event>
<event>
4 7 1.0 5000.0 7.905138e-03 7.739137e-02
 2 -1 0 0 101   0  0.000000e+00  0.000000e+00  1.602265e+03  1.602265e+03 0.0 0.0 9.0
21 -1 0 0 103 101  0.000000e+00  0.000000e+00 -3.845173e+03  3.845173e+03 0.0 0.0 9.0
 2  1 1 2 103   0  1.132153e+03  1.718057e+03 -2.644924e+03  3.350987e+03 0.0022 0.0 9.0
22  1 1 2   0   0 -1.132153e+03 -1.718057e+03  4.020157e+02  2.096451e+03 0.0 0.0 9.0
#pdf 2 21 2.465022e-01 5.915651e-01 5000.0 3.183290e-01 3.139644e-02
</event>
<event>
4 7 1.0 5000.0 7.905138e-03 7.739137e-02
 2 -1 0 0 101   0  0.000000e+00  0.000000e+00  1.786921e+03  1.786921e+03 0.0 0.0 9.0
21 -1 0 0 103 101  0.000000e+00  0.000000e+00 -3.033476e+03  3.033476e+03 0.0 0.0 9.0
22  1 1 2   0   0 -2.222124e+03 -6.932733e+02 -5.756455e+02  2.397881e+03 0.0 0.0 9.0
 2  1 1 2 103   0  2.222124e+03  6.932733e+02 -6.709091e+02  2.422516e+03 0.0022 0.0 9.0
#pdf 2 21 2.749109e-01 4.666886e-01 5000.0 2.808137e-01 9.073179e-02
</event>
<event>
4 7 1.0 5000.0 7.905138e-03 7.739137e-02
21 -1 0 0 103 101  0.000000e+00  0.000000e+00  1.649888e+03  1.649888e+03 0.0 0.0 9.0
 2 -1 0 0 101   0  0.000000e+00  0.000000e+00 -3.650356e+03  3.650356e+03 0.0 0.0 9.0
22  1 1 2   0   0 -8.560863e+02  1.532732e+03 -2.851990e+03  3.349029e+03 0.0 0.0 9.0
 2  1 1 2 103   0  8.560863e+02 -1.532732e+03  8.515219e+02  1.951215e+03 0.0022 0.0 9.0
#pdf 21 2 2.538289e-01 5.615933e-01 5000.0 6.364220e-02 1.165161e-03
</event>
<event>
4 7 1.0 5000.0 7.905138e-03 7.739137e-02
 2 -1 0 0 101   0  0.000000e+00  0.000000e+00  3.816867e+03  3.816867e+03 0.0 0.0 9.0
21 -1 0 0 103 101  0.000000e+00  0.000000e+00 -1.553330e+03  1.553330e+03 0.0 0.0 9.0
22  1 1 2   0   0  9.279812e+02 -1.889937e+03 -2.169382e+02  2.116619e+03 0.0 0.0 9.0
 2  1 1 2 103   0 -9.279812e+02  1.889937e+03  2.480475e+03  3.253578e+03 0.0022 0.0 9.0
#pdf 2 21 5.872103e-01 2.389738e-01 5000.0 3.276844e-02 3.284588e-01
</event>
<event>
4 7 1.0 5000.0 7.905138e-03 7.739137e-02
21 -1 0 0 103 101  0.000000e+00  0.000000e+00  1.806602e+03  1.806602e+03 0.0 0.0 9.0
 2 -1 0 0 101   0  0.000000e+00  0.000000e+00 -2.934077e+03  2.934077e+03 0.0 0.0 9.0
22  1 1 2   0   0  1.139754e+03  1.963905e+03 -9.554331e+02  2.463496e+03 0.0 0.0 9.0
 2  1 1 2 103   0 -1.139754e+03 -1.963905e+03 -1.720420e+02  2.277182e+03 0.0022 0.0 9.0
#pdf 21 2 2.779387e-01 4.513964e-01 5000.0 4.720754e-02 5.418525e-03
</event>
<event>
4 7 1.0 5000.0 7.905138e-03 7.739137e-02
21 -1 0 0 103 101  0.000000e+00  0.000000e+00  2.336891e+03  2.336891e+03 0.0 0.0 9.0
 2 -1 0 0 101   0  0.000000e+00  0.000000e+00 -2.654686e+03  2.654686e+03 0.0 0.0 9.0
 2  1 1 2 103   0  6.340920e+02  1.725519e+03 -1.842857e+03  2.603000e+03 0.0022 0.0 9.0
22  1 1 2   0   0 -6.340920e+02 -1.725519e+03  1.525062e+03  2.388577e+03 0.0 0.0 9.0
#pdf 21 2 3.595218e-01 4.084132e-01 5000.0 1.734978e-02 9.422367e-03
</event>
<event>
4 7 1.0 5000.0 7.905138e-03 7.739137e-02
21 -1 0 0 103 101  0.000000e+00  0.000000e+00  2.341205e+03  2.341205e+03 0.0 0.0 9.0
 2 -1 0 0 101   0  0.000000e+00  0.000000e+00 -2.508172e+03  2.508172e+03 0.0 0.0 9.0
 2  1 1 2 103   0 -1.614811e+03  1.620892e+03  7.152641e+02  2.397187e+03 0.0022 0.0 9.0
22  1 1 2   0   0  1.614811e+03 -1.620892e+03 -8.822304e+02  2.452190e+03 0.0 0.0 9.0
#pdf 21 2 3.601855e-01 3.858726e-01 5000.0 1.720937e-02 1.251838e-02
</event>
<event>
4 7 1.0 5000.0 7.905138e-03 7.739137e-02
 2 -1 0 0 101   0  0.000000e+00  0.000000e+00  2.887068e+03  2.887068e+03 0.0 0.0 9.0
21 -1 0 0 103 101  0.000000e+00  0.000000e+00 -2.162091e+03  2.162091e+03 0.0 0.0 9.0
 2  1 1 2 103   0 -9.201212e+02 -1.122231e+03  2.417517e+03  2.819648e+03 0.0022 0.0 9.0
22  1 1 2   0   0  9.201212e+02  1.122231e+03 -1.692541e+03  2.229511e+03 0.0 0.0 9.0
#pdf 2 21 4.441643e-01 3.326295e-01 5000.0 1.065159e-01 2.107478e-01
</event>
<event>
4 7 1.0 5000.0 7.905138e-03 7.739137e-02
21 -1 0 0 103 101  0.000000e+00  0.000000e+00  4.381007e+03  4.381007e+03 0.0 0.0 9.0
 2 -1 0 0 101   0  0.000000e+00  0.000000e+00 -1.082677e+03  1.082677e+03 0.0 0.0 9.0
 2  1 1 2 103   0 -1.388067e+03 -8.368101e+02 -1.755752e+02  1.630278e+03 0.0022 0.0 9.0
22  1 1 2   0   0  1.388067e+03  8.368101e+02  3.473905e+03  3.833405e+03 0.0 0.0 9.0
#pdf 21 2 6.740011e-01 1.665657e-01 5000.0 1.789883e-04 1.967826e-01
</event>
<event>
4 7 1.0 5000.0 7.905138e-03 7.739137e-02
 2 -1 0 0 101   0  0.000000e+00  0.000000e+00  1.956210e+03  1.956210e+03 0.0 0.0 9.0
21 -1 0 0 103 101  0.000000e+00  0.000000e+00 -3.337180e+03  3.337180e+03 0.0 0.0 9.0
22  1 1 2   0   0 -1.181462e+03 -1.738972e+03  8.136186e+02  2.254296e+03 0.0 0.0 9.0
 2  1 1 2 103   0  1.181462e+03  1.738972e+03 -2.194589e+03  3.039095e+03 0.0022 0.0 9.0
#pdf 2 21 3.009554e-01 5.134124e-01 5000.0 2.480298e-01 6.327558e-02
</event>
<event>
4 7 1.0 5000.0 7.905138e-03 7.739137e-02
 2 -1 0 0 101   0  0.000000e+00  0.000000e+00  3.617326e+03  3.617326e+03 0.0 0.0 9.0
21 -1 0 0 103 101  0.000000e+00  0.000000e+00 -1.696734e+03  1.696734e+03 0.0 0.0 9.0
 2  1 1 2 103   0  1.984234e+03  2.341436e+02 -6.106941e+02  2.089247e+03 0.0022 0.0 9.0
22  1 1 2   0   0 -1.984234e+03 -2.341436e+02  2.531286e+03  3.224812e+03 0.0 0.0 9.0
#pdf 2 21 5.565116e-01 2.610360e-01 5000.0 4.373287e-02 2.989384e-01
</event>
<event>
4 7 1.0 5000.0 7.905138e-03 7.739137e-02
 2 -1 0 0 101   0  0.000000e+00  0.000000e+00  5.383873e+03  5.383873e+03 0.0 0.0 9.0
21 -1 0 0 103 101  0.000000e+00  0.000000e+00 -1.107632e+03  1.107632e+03 0.0 0.0 9.0
 2  1 1 2 103   0 -3.127073e+02  2.346717e+03  2.933924e+03  3.769984e+03 0.0022 0.0 9.0
22  1 1 2   0   0  3.127073e+02 -2.346717e+03  1.342317e+03  2.721522e+03 0.0 0.0 9.0
#pdf 2 21 8.282882e-01 1.704050e-01 5000.0 9.116024e-04 4.226172e-01
</event>
<event>
4 7 1.0 5000.0 7.905138e-03 7.739137e-02
 2 -1 0 0 101   0  0.000000e+00  0.000000e+00  1.785135e+03  1.785135e+03 0.0 0.0 9.0
21 -1 0 0 103 101  0.000000e+00  0.000000e+00 -3.470152e+03  3.470152e+03 0.0 0.0 9.0
 2  1 1 2 103   0  9.542722e+02 -1.374479e+03  1.102707e+03  2.003944e+03 0.0022 0.0 9.0
22  1 1 2   0   0 -9.542722e+02  1.374479e+03 -2.787724e+03  3.251343e+03 0.0 0.0 9.0
#pdf 2 21 2.746362e-01 5.338695e-01 5000.0 2.811688e-01 5.335344e-02
</event>
<event>
4 7 1.0 5000.0 7.905138e-03 7.739137e-02
 2 -1 0 0 101   0  0.000000e+00  0.000000e+00  3.339055e+03  3.339055e+03 0.0 0.0 9.0
21 -1 0 0 103 101  0.000000e+00  0.000000e+00 -1.905928e+03  1.905928e+03 0.0 0.0 9.0
22  1 1 2   0   0 -1.706164e+03  1.133370e+03 -8.142644e+02  2.204211e+03 0.0 0.0 9.0
 2  1 1 2 103   0  1.706164e+03 -1.133370e+03  2.247392e+03  3.040771e+03 0.0022 0.0 9.0
#pdf 2 21 5.137008e-01 2.932197e-01 5000.0 6.312718e-02 2.575678e-01
</event>
<event>
4 7 1.0 5000.0 7.905138e-03 7.739137e-02
21 -1 0 0 103 101  0.000000e+00  0.000000e+00  1.694737e+03  1.694737e+03 0.0 0.0 9.0
 2 -1 0 0 101   0  0.000000e+00  0.000000e+00 -3.002584e+03  3.002584e+03 0.0 0.0 9.0
22  1 1 2   0   0  4.357473e+02  9.427318e+02 -2.738856e+03  2.929156e+03 0.0 0.0 9.0
 2  1 1 2 103   0 -4.357473e+02 -9.427318e+02  1.431010e+03  1.768165e+03 0.0022 0.0 9.0
#pdf 21 2 2.607288e-01 4.619360e-01 5000.0 5.837322e-02 4.712595e-03
</event>
<event>
4 7 1.0 5000.0 7.905138e-03 7.739137e-02
 2 -1 0 0 101   0  0.000000e+00  0.000000e+00  1.609934e+03  1.609934e+03 0.0 0.0 9.0
21 -1 0 0 103 101  0.000000e+00  0.000000e+00 -3.839855e+03  3.839855e+03 0.0 0.0 9.0
 2  1 1 2 103   0  5.633541e+02  1.495237e+03  9.727510e+02  1.870654e+03 0.0022 0.0 9.0
22  1 1 2   0   0 -5.633541e+02 -1.495237e+03 -3.202672e+03  3.579135e+03 0.0 0.0 9.0
#pdf 2 21 2.476822e-01 5.907469e-01 5000.0 3.167278e-01 3.165089e-02
</event>
<event>
4 7 1.0 5000.0 7.905138e-03 7.739137e-02
21 -1 0 0 103 101  0.000000e+00  0.000000e+00  1.620782e+03  1.620782e+03 0.0 0.0 9.0
 2 -1 0 0 101   0  0.000000e+00  0.000000e+00 -3.951848e+03  3.951848e+03 0.0 0.0 9.0
22  1 1 2   0   0  1.011926e+03  1.603957e+03 -3.010541e+03  3.558093e+03 0.0 0.0 9.0
 2  1 1 2 103   0 -1.011926e+03 -1.603957e+03  6.794750e+02  2.014537e+03 0.0022 0.0 9.0
#pdf 21 2 2.493511e-01 6.079766e-01 5000.0 6.727061e-02 5.645911e-04
</event>
<event>
4 7 1.0 5000.0 7.905138e-03 7.739137e-02
21 -1 0 0 103 101  0.000000e+00  0.000000e+00  3.213664e+03  3.213664e+03 0.0 0.0 9.0
 2 -1 0 0 101   0  0.000000e+00  0.000000e+00 -2.058293e+03  2.058293e+03 0.0 0.0 9.0
22  1 1 2   0   0  2.282832e+02 -1.700416e+03 -1.386073e+03  2.205613e+03 0.0 0.0 9.0
 2  1 1 2 103   0 -2.282832e+02  1.700416e+03  2.541444e+03  3.066344e+03 0.0022 0.0 9.0
#pdf 21 2 4.944098e-01 3.166604e-01 5000.0 3.043873e-03 2.937284e-02
</event>
<event>
4 7 1.0 5000.0 7.905138e-03 7.739137e-02
 2 -1 0 0 101   0  0.000000e+00  0.000000e+00  2.345276e+03  2.345276e+03 0.0 0.0 9.0
21 -1 0 0 103 101  0.000000e+00  0.000000e+00 -2.538242e+03  2.538242e+03 0.0 0.0 9.0
22  1 1 2   0   0 -7.652447e+02 -2.060215e+03 -1.156930e+03  2.483661e+03 0.0 0.0 9.0
 2  1 1 2 103   0  7.652447e+02  2.060215e+03  9.639639e+02  2.399857e+03 0.0022 0.0 9.0
#pdf 2 21 3.608117e-01 3.904988e-01 5000.0 1.803098e-01 1.512338e-01
</event>
<event>
4 7 1.0 5000.0 7.905138e-03 7.739137e-02
21 -1 0 0 103 101  0.000000e+00  0.000000e+00  1.706356e+03  1.706356e+03 0.0 0.0 9.0
 2 -1 0 0 101   0  0.000000e+00  0.000000e+00 -3.944802e+03  3.944802e+03 0.0 0.0 9.0
 2  1 1 2 103   0 -1.900929e+02 -1.968491e+03  7.097018e+02  2.101135e+03 0.0022 0.0 9.0
22  1 1 2   0   0  1.900929e+02  1.968491e+03 -2.948148e+03  3.550024e+03 0.0 0.0 9.0
#pdf 21 2 2.625163e-01 6.068927e-01 5000.0 5.708595e-02 5.746451e-04
</event>
<event>
4 7 1.0 5000.0 7.905138e-03 7.739137e-02
 2 -1 0 0 101   0  0.000000e+00  0.000000e+00  2.107153e+03  2.107153e+03 0.0 0.0 9.0
21 -1 0 0 103 101  0.000000e+00  0.000000e+00 -2.161124e+03  2.161124e+03 0.0 0.0 9.0
 2  1 1 2 103   0  9.153464e+02 -1.914891e+03  1.947354e+02  2.131335e+03 0.0022 0.0 9.0
22  1 1 2   0   0 -9.153464e+02  1.914891e+03 -2.487068e+02  2.136942e+03 0.0 0.0 9.0
#pdf 2 21 3.241773e-01 3.324806e-01 5000.0 2.203972e-01 2.109156e-01
</event>
<event>
4 7 1.0 5000.0 7.905138e-03 7.739137e-02
 2 -1 0 0 101   0  0.000000e+00  0.000000e+00  1.722908e+03  1.722908e+03 0.0 0.0 9.0
21 -1 0 0 103 101  0.000000e+00  0.000000e+00 -4.081556e+03  4.081556e+03 0.0 0.0 9.0
22  1 1 2   0   0 -2.421012e+02 -8.368860e+02 -3.920464e+03  4.016096e+03 0.0 0.0 9.0
 2  1 1 2 103   0  2.421012e+02  8.368860e+02  1.561816e+03  1.788368e+03 0.0022 0.0 9.0
#pdf 2 21 2.650628e-01 6.279317e-01 5000.0 2.936450e-01 2.152903e-02
</event>
<event>
4 7 1.0 5000.0 7.905138e-03 7.739137e-02
21 -1 0 0 103 101  0.000000e+00  0.000000e+00  1.489024e+03  1.489024e+03 0.0 0.0 9.0
 2 -1 0 0 101   0  0.000000e+00  0.000000e+00 -4.206205e+03  4.206205e+03 0.0 0.0 9.0
22  1 1 2   0   0  6.099013e+02 -1.702879e+03 -3.326566e+03  3.786531e+03 0.0 0.0 9.0
 2  1 1 2 103   0 -6.099013e+02  1.702879e+03  6.093849e+02  1.908698e+03 0.0022 0.0 9.0
#pdf 21 2 2.290806e-01 6.471084e-01 5000.0 8.663553e-02 2.914112e-04
</event>
<event>
4 7 1.0 5000.0 7.905138e-03 7.739137e-02
21 -1 0 0 103 101  0.000000e+00  0.000000e+00  1.438355e+03  1.438355e+03 0.0 0.0 9.0
 2 -1 0 0 101   0  0.000000e+00  0.000000e+00 -4.287493e+03  4.287493e+03 0.0 0.0 9.0
22  1 1 2   0   0 -1.420006e+03 -1.751483e+03 -2.624220e+03  3.459861e+03 0.0 0.0 9.0
 2  1 1 2 103   0  1.420006e+03  1.751483e+03 -2.249186e+02  2.265987e+03 0.0022 0.0 9.0
#pdf 21 2 2.212854e-01 6.596143e-01 5000.0 9.568776e-02 2.335305e-04
</event>
<event>
4 7 1.0 5000.0 7.905138e-03 7.739137e-02
 2 -1 0 0 101   0  0.000000e+00  0.000000e+00  1.359168e+03  1.359168e+03 0.0 0.0 9.0
21 -1 0 0 103 101  0.000000e+00  0.000000e+00 -4.548715e+03  4.548715e+03 0.0 0.0 9.0
 2  1 1 2 103   0 -1.658844e+01 -1.588601e+03 -3.867121e+03  4.180736e+03 0.0022 0.0 9.0
22  1 1 2   0   0  1.658844e+01  1.588601e+03  6.775744e+02  1.727147e+03 0.0 0.0 9.0
#pdf 2 21 2.091028e-01 6.998023e-01 5000.0 3.694588e-01 8.975001e-03
</event>
<event>
4 7 1.0 5000.0 7.905138e-03 7.739137e-02
 2 -1 0 0 101   0  0.000000e+00  0.000000e+00  1.674050e+03  1.674050e+03 0.0 0.0 9.0
21 -1 0 0 103 101  0.000000e+00  0.000000e+00 -3.741047e+03  3.741047e+03 0.0 0.0 9.0
 2  1 1 2 103   0 -1.822451e+02 -2.193802e+03 -2.321267e+03  3.199103e+03 0.0022 0.0 9.0
22  1 1 2   0   0  1.822451e+02  2.193802e+03  2.542695e+02  2.215994e+03 0.0 0.0 9.0
#pdf 2 21 2.575461e-01 5.755457e-01 5000.0 3.035436e-01 3.665947e-02
</event>
<event>
4 7 1.0 5000.0 7.905138e-03 7.739137e-02
 2 -1 0 0 101   0  0.000000e+00  0.000000e+00  2.771213e+03  2.771213e+03 0.0 0.0 9.0
21 -1 0 0 103 101  0.000000e+00  0.000000e+00 -2.224260e+03  2.224260e+03 0.0 0.0 9.0
 2  1 1 2 103   0  1.832703e+03 -1.602486e+03 -2.164341e+02  2.444096e+03 0.0022 0.0 9.0
22  1 1 2   0   0 -1.832703e+03  1.602486e+03  7.633878e+02  2.551377e+03 0.0 0.0 9.0
#pdf 2 21 4.263405e-01 3.421938e-01 5000.0 1.202373e-01 2.001224e-01
</event>
<event>
4 7 1.0 5000.0 7.905138e-03 7.739137e-02
21 -1 0 0 103 101  0.000000e+00  0.000000e+00  1.825628e+03  1.825628e+03 0.0 0.0 9.0
 2 -1 0 0 101   0  0.000000e+00  0.000000e+00 -3.510622e+03  3.510622e+03 0.0 0.0 9.0
 2  1 1 2 103   0 -3.925025e+02  1.197902e+03 -3.156343e+03  3.398754e+03 0.0022 0.0 9.0
22  1 1 2   0   0  3.925025e+02 -1.197902e+03  1.471349e+03  1.937497e+03 0.0 0.0 9.0
#pdf 21 2 2.808659e-01 5.400957e-01 5000.0 4.553616e-02 1.597570e-03
</event>
<event>
4 7 1.0 5000.0 7.905138e-03 7.739137e-02
21 -1 0 0 103 101  0.000000e+00  0.000000e+00  4.190066e+03  4.190066e+03 0.0 0.0 9.0
 2 -1 0 0 101   0  0.000000e+00  0.000000e+00 -1.536398e+03  1.536398e+03 0.0 0.0 9.0
 2  1 1 2 103   0  2.377530e+03  8.849894e+02  1.279592e+03  2.841340e+03 0.0022 0.0 9.0
22  1 1 2   0   0 -2.377530e+03 -8.849894e+02  1.374076e+03  2.885124e+03 0.0 0.0 9.0
#pdf 21 2 6.446256e-01 2.363688e-01 5000.0 3.044463e-04 7.911611e-02
</event>
<event>
4 7 1.0 5000.0 7.905138e-03 7.739137e-02
21 -1 0 0 103 101  0.000000e+00  0.000000e+00  2.753126e+03  2.753126e+03 0.0 0.0 9.0
 2 -1 0 0 101   0  0.000000e+00  0.000000e+00 -2.130210e+03  2.130210e+03 0.0 0.0 9.0
 2  1 1 2 103   0 -1.136312e+03  1.120202e+03 -1.525271e+03  2.207376e+03 0.0022 0.0 9.0
22  1 1 2   0   0  1.136312e+03 -1.120202e+03  2.148187e+03  2.675961e+03 0.0 0.0 9.0
#pdf 21 2 4.235579e-01 3.277246e-01 5000.0 7.768744e-03 2.565062e-02
</event>
<event>
4 7 1.0 5000.0 7.905138e-03 7.739137e-02
 2 -1 0 0 101   0  0.000000e+00  0.000000e+00  1.714735e+03  1.714735e+03 0.0 0.0 9.0
21 -1 0 0 103 101  0.000000e+00  0.000000e+00 -3.641956e+03  3.641956e+03 0.0 0.0 9.0
 2  1 1 2 103   0 -2.563895e+02  1.956855e+03 -2.606590e+03  3.269454e+03 0.0022 0.0 9.0
22  1 1 2   0   0  2.563895e+02 -1.956855e+03  6.793685e+02  2.087237e+03 0.0 0.0 9.0
#pdf 2 21 2.638054e-01 5.603009e-01 5000.0 2.952959e-01 4.225924e-02
</event>
<event>
4 7 1.0 5000.0 7.905138e-03 7.739137e-02
 2 -1 0 0 101   0  0.000000e+00  0.000000e+00  1.360231e+03  1.360231e+03 0.0 0.0 9.0
21 -1 0 0 103 101  0.000000e+00  0.000000e+00 -4.413754e+03  4.413754e+03 0.0 0.0 9.0
22  1 1 2   0   0 -1.828685e+03  1.517620e+03 -8.232935e+02  2.514970e+03 0.0 0.0 9.0
 2  1 1 2 103   0  1.828685e+03 -1.517620e+03 -2.230229e+03  3.259016e+03 0.0022 0.0 9.0
#pdf 2 21 2.092664e-01 6.790391e-01 5000.0 3.692306e-01 1.179251e-02
</event>
<event>
4 7 1.0 5000.0 7.905138e-03 7.739137e-02
21 -1 0 0 103 101  0.000000e+00  0.000000e+00  4.094273e+03  4.094273e+03 0.0 0.0 9.0
 2 -1 0 0 101   0  0.000000e+00  0.000000e+00 -1.650129e+03  1.650129e+03 0.0 0.0 9.0
22  1 1 2   0   0  1.081906e+03 -2.114524e+03  2.388552e+03  3.368518e+03 0.0 0.0 9.0
 2  1 1 2 103   0 -1.081906e+03  2.114524e+03  5.559236e+01  2.375884e+03 0.0022 0.0 9.0
#pdf 21 2 6.298881e-01 2.538660e-01 5000.0 3.923538e-04 6.361276e-02
</event>
<event>
4 7 1.0 5000.0 7.905138e-03 7.739137e-02
 2 -1 0 0 101   0  0.000000e+00  0.000000e+00  2.163453e+03  2.163453e+03 0.0 0.0 9.0
21 -1 0 0 103 101  0.000000e+00  0.000000e+00 -2.916163e+03  2.916163e+03 0.0 0.0 9.0
22  1 1 2   0   0 -9.853860e+02  1.835869e+03  1.042008e+03  2.329631e+03 0.0 0.0 9.0
 2  1 1 2 103   0  9.853860e+02 -1.835869e+03 -1.794718e+03  2.749984e+03 0.0022 0.0 9.0
#pdf 2 21 3.328389e-01 4.486404e-01 5000.0 2.105118e-01 1.032361e-01
</event>
<event>
4 7 1.0 5000.0 7.905138e-03 7.739137e-02
21 -1 0 0 103 101  0.000000e+00  0.000000e+00  1.990480e+03  1.990480e+03 0.0 0.0 9.0
 2 -1 0 0 101   0  0.000000e+00  0.000000e+00 -3.105578e+03  3.105578e+03 0.0 0.0 9.0
 2  1 1 2 103   0  1.224877e+03  6.413076e+02 -2.675265e+03  3.011419e+03 0.0022 0.0 9.0
22  1 1 2   0   0 -1.224877e+03 -6.413076e+02  1.560168e+03  2.084640e+03 0.0 0.0 9.0
#pdf 21 2 3.062277e-01 4.777812e-01 5000.0 3.340909e-02 3.815138e-03
</event>
<event>
4 7 1.0 5000.0 7.905138e-03 7.739137e-02
21 -1 0 0 103 101  0.000000e+00  0.000000e+00  1.311667e+03  1.311667e+03 0.0 0.0 9.0
 2 -1 0 0 101   0  0.000000e+00  0.000000e+00 -4.781793e+03  4.781793e+03 0.0 0.0 9.0
22  1 1 2   0   0 -7.085989e+02 -1.772020e+03 -3.707944e+03  4.170254e+03 0.0 0.0 9.0
 2  1 1 2 103   0  7.085989e+02  1.772020e+03  2.378182e+02  1.923206e+03 0.0022 0.0 9.0
#pdf 21 2 2.017949e-01 7.356605e-01 5000.0 1.228939e-01 5.102013e-05
</event>
<event>
4 7 1.0 5000.0 7.905138e-03 7.739137e-02
21 -1 0 0 103 101  0.000000e+00  0.000000e+00  2.708135e+03  2.708135e+03 0.0 0.0 9.0
 2 -1 0 0 101   0  0.000000e+00  0.000000e+00 -2.311730e+03  2.311730e+03 0.0 0.0 9.0
22  1 1 2   0   0 -2.495549e+03 -1.435513e+02  3.085756e+02  2.518648e+03 0.0 0.0 9.0
 2  1 1 2 103   0  2.495549e+03  1.435513e+02  8.782935e+01  2.501216e+03 0.0022 0.0 9.0
#pdf 21 2 4.166361e-01 3.556507e-01 5000.0 8.486224e-03 1.819655e-02
</event>
<event>
4 7 1.0 5000.0 7.905138e-03 7.739137e-02
 2 -1 0 0 101   0  0.000000e+00  0.000000e+00  1.528389e+03  1.528389e+03 0.0 0.0 9.0
21 -1 0 0 103 101  0.000000e+00  0.000000e+00 -4.111858e+03  4.111858e+03 0.0 0.0 9.0
 2  1 1 2 103   0  1.196639e+03 -1.459301e+03  5.646030e+02  1.969843e+03 0.0022 0.0 9.0
22  1 1 2   0   0 -1.196639e+03  1.459301e+03 -3.148071e+03  3.670403e+03 0.0 0.0 9.0
#pdf 2 21 2.351368e-01 6.325935e-01 5000.0 3.336902e-01 2.045421e-02
</event>
<event>
4 7 1.0 5000.0 7.905138e-03 7.739137e-02
 2 -1 0 0 101   0  0.000000e+00  0.000000e+00  4.877448e+03  4.877448e+03 0.0 0.0 9.0
21 -1 0 0 103 101  0.000000e+00  0.000000e+00 -1.191706e+03  1.191706e+03 0.0 0.0 9.0
 2  1 1 2 103   0  1.785432e+03  2.457815e+02  3.858461e+03  4.258626e+03 0.0022 0.0 9.0
22  1 1 2   0   0 -1.785432e+03 -2.457815e+02 -1.727192e+02  1.810527e+03 0.0 0.0 9.0
#pdf 2 21 7.503766e-01 1.833394e-01 5000.0 4.217061e-03 4.048817e-01
</event>
<event>
4 7 1.0 5000.0 7.905138e-03 7.739137e-02
 2 -1 0 0 101   0  0.000000e+00  0.000000e+00  3.363249e+03  3.363249e+03 0.0 0.0 9.0
21 -1 0 0 103 101  0.000000e+00  0.000000e+00 -1.885476e+03  1.885476e+03 0.0 0.0 9.0
 2  1 1 2 103   0 -7.321730e+02 -3.781370e+02  3.218755e+03  3.322567e+03 0.0022 0.0 9.0
22  1 1 2   0   0  7.321730e+02  3.781370e+02 -1.740983e+03  1.926158e+03 0.0 0.0 9.0
#pdf 2 21 5.174228e-01 2.900733e-01 5000.0 6.123385e-02 2.615058e-01
</event>
<event>
4 7 1.0 5000.0 7.905138e-03 7.739137e-02
 2 -1 0 0 101   0  0.000000e+00  0.000000e+00  2.345145e+03  2.345145e+03 0.0 0.0 9.0
21 -1 0 0 103 101  0.000000e+00  0.000000e+00 -1.932455e+03  1.932455e+03 0.0 0.0 9.0
 2  1 1 2 103   0 -1.478336e+03  1.240696e+03  1.108934e+03  2.225879e+03 0.0022 0.0 9.0
22  1 1 2   0   0  1.478336e+03 -1.240696e+03 -6.962436e+02  2.051721e+03 0.0 0.0 9.0
#pdf 2 21 3.607916e-01 2.973008e-01 5000.0 1.803305e-01 2.525107e-01
</event>
<event>
4 7 1.0 5000.0 7.905138e-03 7.739137e-02
21 -1 0 0 103 101  0.000000e+00  0.000000e+00  2.573867e+03  2.573867e+03 0.0 0.0 9.0
 2 -1 0 0 101   0  0.000000e+00  0.000000e+00 -2.417481e+03  2.417481e+03 0.0 0.0 9.0
22  1 1 2   0   0 -1.768195e+03 -1.716421e+03 -3.088583e+02  2.483547e+03 0.0 0.0 9.0
 2  1 1 2 103   0  1.768195e+03  1.716421e+03  4.652439e+02  2.507801e+03 0.0022 0.0 9.0
#pdf 21 2 3.959795e-01 3.719202e-01 5000.0 1.102290e-02 1.488019e-02
</event>
<event>
4 7 1.0 5000.0 7.905138e-03 7.739137e-02
21 -1 0 0 103 101  0.000000e+00  0.000000e+00  1.743560e+03  1.743560e+03 0.0 0.0 9.0
 2 -1 0 0 101   0  0.000000e+00  0.000000e+00 -3.396275e+03  3.396275e+03 0.0 0.0 9.0
22  1 1 2   0   0  3.475790e+02  6.926856e+02  1.609744e+03  1.786589e+03 0.0 0.0 9.0
 2  1 1 2 103   0 -3.475790e+02 -6.926856e+02 -3.262459e+03  3.353247e+03 0.0022 0.0 9.0
#pdf 21 2 2.682401e-01 5.225039e-01 5000.0 5.318540e-02 2.057544e-03
</event>
<event>
4 7 1.0 5000.0 7.905138e-03 7.739137e-02
 2 -1 0 0 101   0  0.000000e+00  0.000000e+00  2.975714e+03  2.975714e+03 0.0 0.0 9.0
21 -1 0 0 103 101  0.000000e+00  0.000000e+00 -2.479658e+03  2.479658e+03 0.0 0.0 9.0
 2  1 1 2 103   0  7.150518e+02  2.605136e+03  5.333275e+02  2.753628e+03 0.0022 0.0 9.0
22  1 1 2   0   0 -7.150518e+02 -2.605136e+03 -3.727140e+01  2.701744e+03 0.0 0.0 9.0
#pdf 2 21 4.578022e-01 3.814859e-01 5000.0 9.675102e-02 1.597333e-01
</event>
<event>
4 7 1.0 5000.0 7.905138e-03 7.739137e-02
21 -1 0 0 103 101  0.000000e+00  0.000000e+00  2.568353e+03  2.568353e+03 0.0 0.0 9.0
 2 -1 0 0 101   0  0.000000e+00  0.000000e+00 -2.420663e+03  2.420663e+03 0.0 0.0 9.0
22  1 1 2   0   0  2.323061e+03 -7.877863e+02 -3.734518e+02  2.481267e+03 0.0 0.0 9.0
 2  1 1 2 103   0 -2.323061e+03  7.877863e+02  5.211410e+02  2.507749e+03 0.0022 0.0 9.0
#pdf 21 2 3.951312e-01 3.724098e-01 5000.0 1.114100e-02 1.479223e-02
</event>
<event>
4 7 1.0 5000.0 7.905138e-03 7.739137e-02
 2 -1 0 0 101   0  0.000000e+00  0.000000e+00  3.175778e+03  3.175778e+03 0.0 0.0 9.0
21 -1 0 0 103 101  0.000000e+00  0.000000e+00 -1.893959e+03  1.893959e+03 0.0 0.0 9.0
22  1 1 2   0   0 -1.940012e+03  6.220324e+01 -9.085255e+02  2.143113e+03 0.0 0.0 9.0
 2  1 1 2 103   0  1.940012e+03 -6.220324e+01  2.190345e+03  2.926624e+03 0.0022 0.0 9.0
#pdf 2 21 4.885812e-01 2.913783e-01 5000.0 7.700404e-02 2.598687e-01
</event>
<event>
4 7 1.0 5000.0 7.905138e-03 7.739137e-02
21 -1 0 0 103 101  0.000000e+00  0.000000e+00  2.202971e+03  2.202971e+03 0.0 0.0 9.0
 2 -1 0 0 101   0  0.000000e+00  0.000000e+00 -2.806019e+03  2.806019e+03 0.0 0.0 9.0
 2  1 1 2 103   0  5.034487e+02 -1.535739e+02  2.146205e+03  2.209805e+03 0.0022 0.0 9.0
22  1 1 2   0   0 -5.034487e+02  1.535739e+02 -2.749252e+03  2.799185e+03 0.0 0.0 9.0
#pdf 21 2 3.389186e-01 4.316952e-01 5000.0 2.235724e-02 6.997713e-03
</event>
<event>
4 7 1.0 5000.0 7.905138e-03 7.739137e-02
21 -1 0 0 103 101  0.000000e+00  0.000000e+00  1.804825e+03  1.804825e+03 0.0 0.0 9.0
 2 -1 0 0 101   0  0.000000e+00  0.000000e+00 -3.642978e+03  3.642978e+03 0.0 0.0 9.0
 2  1 1 2 103   0 -7.155345e+02 -1.868498e+03 -2.622619e+03  3.298697e+03 0.0022 0.0 9.0
22  1 1 2   0   0  7.155345e+02  1.868498e+03  7.844653e+02  2.149107e+03 0.0 0.0 9.0
#pdf 21 2 2.776654e-01 5.604582e-01 5000.0 4.736647e-02 1.185167e-03
</event>
<event>
4 7 1.0 5000.0 7.905138e-03 7.739137e-02
 2 -1 0 0 101   0  0.000000e+00  0.000000e+00  2.154715e+03  2.154715e+03 0.0 0.0 9.0
21 -1 0 0 103 101  0.000000e+00  0.000000e+00 -2.906153e+03  2.906153e+03 0.0 0.0 9.0
 2  1 1 2 103   0  1.341541e+03  1.903815e+03  5.497912e+02  2.393014e+03 0.0022 0.0 9.0
22  1 1 2   0   0 -1.341541e+03 -1.903815e+03 -1.301229e+03  2.667854e+03 0.0 0.0 9.0
#pdf 2 21 3.314946e-01 4.471004e-01 5000.0 2.120294e-01 1.043505e-01
</event>
<event>
4 7 1.0 5000.0 7.905138e-03 7.739137e-02
21 -1 0 0 103 101  0.000000e+00  0.000000e+00  1.896719e+03  1.896719e+03 0.0 0.0 9.0
 2 -1 0 0 101   0  0.000000e+00  0.000000e+00 -2.990079e+03  2.990079e+03 0.0 0.0 9.0
 2  1 1 2 103   0 -1.371148e+03  1.358879e+03 -1.977491e+03  2.763525e+03 0.0022 0.0 9.0
22  1 1 2   0   0  1.371148e+03 -1.358879e+03  8.841310e+02  2.123273e+03 0.0 0.0 9.0
#pdf 21 2 2.918029e-01 4.600122e-01 5000.0 3.985864e-02 4.834723e-03
</event>
<event>
4 7 1.0 5000.0 7.905138e-03 7.739137e-02
 2 -1 0 0 101   0  0.000000e+00  0.000000e+00  3.792693e+03  3.792693e+03 0.0 0.0 9.0
21 -1 0 0 103 101  0.000000e+00  0.000000e+00 -1.660121e+03  1.660121e+03 0.0 0.0 9.0
 2  1 1 2 103   0  1.475187e+03 -7.904534e+02  3.097667e+03  3.520871e+03 0.0022 0.0 9.0
22  1 1 2   0   0 -1.475187e+03  7.904534e+02 -9.650950e+02  1.931942e+03 0.0 0.0 9.0
#pdf 2 21 5.834912e-01 2.554032e-01 5000.0 3.397435e-02 3.063833e-01
</event>
<event>
4 7 1.0 5000.0 7.905138e-03 7.739137e-02
 2 -1 0 0 101   0  0.000000e+00  0.000000e+00  2.923965e+03  2.923965e+03 0.0 0.0 9.0
21 -1 0 0 103 101  0.000000e+00  0.000000e+00 -2.087296e+03  2.087296e+03 0.0 0.0 9.0
 2  1 1 2 103   0  9.563591e+02 -8.376810e+02  2.566707e+03  2.864318e+03 0.0022 0.0 9.0
22  1 1 2   0   0 -9.563591e+02  8.376810e+02 -1.730038e+03  2.146943e+03 0.0 0.0 9.0
#pdf 2 21 4.498408e-01 3.211224e-01 5000.0 1.023750e-01 2.239400e-01
</event>
<event>
4 7 1.0 5000.0 7.905138e-03 7.739137e-02
21 -1 0 0 103 101  0.000000e+00  0.000000e+00  1.859851e+03  1.859851e+03 0.0 0.0 9.0
 2 -1 0 0 101   0  0.000000e+00  0.000000e+00 -3.359298e+03  3.359298e+03 0.0 0.0 9.0
 2  1 1 2 103   0 -1.902561e+03  4.069725e+02 -2.388005e+03  3.080248e+03 0.0022 0.0 9.0
22  1 1 2   0   0  1.902561e+03 -4.069725e+02  8.885576e+02  2.138901e+03 0.0 0.0 9.0
#pdf 21 2 2.861310e-01 5.168151e-01 5000.0 4.269338e-02 2.229987e-03
</event>
<event>
4 7 1.0 5000.0 7.905138e-03 7.739137e-02
21 -1 0 0 103 101  0.000000e+00  0.000000e+00  1.414846e+03  1.414846e+03 0.0 0.0 9.0
 2 -1 0 0 101   0  0.000000e+00  0.000000e+00 -4.434162e+03  4.434162e+03 0.0 0.0 9.0
 2  1 1 2 103   0  2.018749e+03  1.188836e+03 -2.544134e+03  3.458511e+03 0.0022 0.0 9.0
22  1 1 2   0   0 -2.018749e+03 -1.188836e+03 -4.751816e+02  2.390497e+03 0.0 0.0 9.0
#pdf 21 2 2.176686e-01 6.821787e-01 5000.0 1.002254e-01 1.533162e-04
</event>
<event>
4 7 1.0 5000.0 7.905138e-03 7.739137e-02
21 -1 0 0 103 101  0.000000e+00  0.000000e+00  1.608117e+03  1.608117e+03 0.0 0.0 9.0
 2 -1 0 0 101   0  0.000000e+00  0.000000e+00 -3.060534e+03  3.060534e+03 0.0 0.0 9.0
22  1 1 2   0   0  3.394844e+02 -1.383753e+03 -2.515490e+03  2.890971e+03 0.0 0.0 9.0
 2  1 1 2 103   0 -3.394844e+02  1.383753e+03  1.063073e+03  1.777680e+03 0.0022 0.0 9.0
#pdf 21 2 2.474027e-01 4.708514e-01 5000.0 6.888815e-02 4.186975e-03
</event>
<event>
4 7 1.0 5000.0 7.905138e-03 7.739137e-02
 2 -1 0 0 101   0  0.000000e+00  0.000000e+00  3.698014e+03  3.698014e+03 0.0 0.0 9.0
21 -1 0 0 103 101  0.000000e+00  0.000000e+00 -1.671170e+03  1.671170e+03 0.0 0.0 9.0
22  1 1 2   0   0 -2.350129e+03  4.568493e+02  1.736383e+03  2.957506e+03 0.0 0.0 9.0
 2  1 1 2 103   0  2.350129e+03 -4.568493e+02  2.904611e+02  2.411677e+03 0.0022 0.0 9.0
#pdf 2 21 5.689252e-01 2.571030e-01 5000.0 3.901678e-02 3.041300e-01
</event>
<event>
4 7 1.0 5000.0 7.905138e-03 7.739137e-02
 2 -1 0 0 101   0  0.000000e+00  0.000000e+00  4.221826e+03  4.221826e+03 0.0 0.0 9.0
21 -1 0 0 103 101  0.000000e+00  0.000000e+00 -1.476881e+03  1.476881e+03 0.0 0.0 9.0
 2  1 1 2 103   0  1.169902e+03 -1.477944e+03  3.241279e+03  3.749517e+03 0.0022 0.0 9.0
22  1 1 2   0   0 -1.169902e+03  1.477944e+03 -4.963338e+02  1.949189e+03 0.0 0.0 9.0
#pdf 2 21 6.495116e-01 2.272124e-01 5000.0 1.688840e-02 3.445459e-01
</event>
<event>
4 7 1.0 5000.0 7.905138e-03 7.739137e-02
 2 -1 0 0 101   0  0.000000e+00  0.000000e+00  3.213526e+03  3.213526e+03 0.0 0.0 9.0
21 -1 0 0 103 101  0.000000e+00  0.000000e+00 -1.935295e+03  1.935295e+03 0.0 0.0 9.0
 2  1 1 2 103   0 -8.158476e+02 -8.655932e+02 -1.623582e+03  2.012679e+03 0.0022 0.0 9.0
22  1 1 2   0   0  8.158476e+02  8.655932e+02  2.901814e+03  3.136141e+03 0.0 0.0 9.0
#pdf 2 21 4.943886e-01 2.977376e-01 5000.0 7.362162e-02 2.519731e-01
</event>
<event>
4 7 1.0 5000.0 7.905138e-03 7.739137e-02
21 -1 0 0 103 101  0.000000e+00  0.000000e+00  1.389071e+03  1.389071e+03 0.0 0.0 9.0
 2 -1 0 0 101   0  0.000000e+00  0.000000e+00 -4.202706e+03  4.202706e+03 0.0 0.0 9.0
22  1 1 2   0   0 -1.535620e+02 -9.838120e+02 -3.954248e+03  4.077688e+03 0.0 0.0 9.0
 2  1 1 2 103   0  1.535620e+02  9.838120e+02  1.140613e+03  1.514089e+03 0.0022 0.0 9.0
#pdf 21 2 2.137033e-01 6.465701e-01 5000.0 1.054359e-01 2.941819e-04
</event>
<event>
4 7 1.0 5000.0 7.905138e-03 7.739137e-02
21 -1 0 0 103 101  0.000000e+00  0.000000e+00  3.739824e+03  3.739824e+03 0.0 0.0 9.0
 2 -1 0 0 101   0  0.000000e+00  0.000000e+00 -1.485985e+03  1.485985e+03 0.0 0.0 9.0
22  1 1 2   0   0 -2.346373e+03 -1.845500e+01  1.378486e+03  2.721402e+03 0.0 0.0 9.0
 2  1 1 2 103   0  2.346373e+03  1.845500e+01  8.753537e+02  2.504406e+03 0.0022 0.0 9.0
#pdf 21 2 5.753575e-01 2.286130e-01 5000.0 9.438297e-04 8.714774e-02
</event>
<event>
4 7 1.0 5000.0 7.905138e-03 7.739137e-02
21 -1 0 0 103 101  0.000000e+00  0.000000e+00  2.198493e+03  2.198493e+03 0.0 0.0 9.0
 2 -1 0 0 101   0  0.000000e+00  0.000000e+00 -2.570325e+03  2.570325e+03 0.0 0.0 9.0
 2  1 1 2 103   0  5.207912e+02  9.011101e+02  1.957810e+03  2.217260e+03 0.0022 0.0 9.0
22  1 1 2   0   0 -5.207912e+02 -9.011101e+02 -2.329641e+03  2.551558e+03 0.0 0.0 9.0
#pdf 21 2 3.382298e-01 3.954346e-01 5000.0 2.254704e-02 1.109862e-02
</event>
<event>
4 7 1.0 5000.0 7.905138e-03 7.739137e-02
21 -1 0 0 103 101  0.000000e+00  0.000000e+00  3.913440e+03  3.913440e+03 0.0 0.0 9.0
 2 -1 0 0 101   0  0.000000e+00  0.000000e+00 -1.613009e+03  1.613009e+03 0.0 0.0 9.0
 2  1 1 2 103   0  4.881744e+02  1.724804e+03 -7.859378e+02  1.957284e+03 0.0022 0.0 9.0
22  1 1 2   0   0 -4.881744e+02 -1.724804e+03  3.086369e+03  3.569165e+03 0.0 0.0 9.0
#pdf 21 2 6.020677e-01 2.481552e-01 5000.0 6.210592e-04 6.826105e-02
</event>
<event>
4 7 1.0 5000.0 7.905138e-03 7.739137e-02
 2 -1 0 0 101   0  0.000000e+00  0.000000e+00  3.050988e+03  3.050988e+03 0.0 0.0 9.0
21 -1 0 0 103 101  0.000000e+00  0.000000e+00 -1.503913e+03  1.503913e+03 0.0 0.0 9.0
 2  1 1 2 103   0  1.244234e+03 -3.444159e+02  2.590866e+03  2.894707e+03 0.0022 0.0 9.0
22  1 1 2   0   0 -1.244234e+03  3.444159e+02 -1.043792e+03  1.660194e+03 0.0 0.0 9.0
#pdf 2 21 4.693827e-01 2.313713e-01 5000.0 8.895895e-02 3.388491e-01
</event>
<event>
4 7 1.0 5000.0 7.905138e-03 7.739137e-02
 2 -1 0 0 101   0  0.000000e+00  0.000000e+00  2.851811e+03  2.851811e+03 0.0 0.0 9.0
21 -1 0 0 103 101  0.000000e+00  0.000000e+00 -2.245805e+03  2.245805e+03 0.0 0.0 9.0
 2  1 1 2 103   0  1.815340e+03  1.594211e+03 -4.557975e+02  2.458601e+03 0.0022 0.0 9.0
22  1 1 2   0   0 -1.815340e+03 -1.594211e+03  1.061804e+03  2.639014e+03 0.0 0.0 9.0
#pdf 2 21 4.387401e-01 3.455084e-01 5000.0 1.105884e-01 1.965078e-01
</event>
<event>
4 7 1.0 5000.0 7.905138e-03 7.739137e-02
21 -1 0 0 103 101  0.000000e+00  0.000000e+00  2.949912e+03  2.949912e+03 0.0 0.0 9.0
 2 -1 0 0 101   0  0.000000e+00  0.000000e+00 -1.618112e+03  1.618112e+03 0.0 0.0 9.0
22  1 1 2   0   0 -1.218134e+03  1.593585e+02  2.554619e+03  2.834665e+03 0.0 0.0 9.0
 2  1 1 2 103   0  1.218134e+03 -1.593585e+02 -1.222819e+03  1.733359e+03 0.0022 0.0 9.0
#pdf 21 2 4.538326e-01 2.489403e-01 5000.0 5.248455e-03 6.760992e-02
</event>
<event>
4 7 1.0 5000.0 7.905138e-03 7.739137e-02
21 -1 0 0 103 101  0.000000e+00  0.000000e+00  1.799508e+03  1.799508e+03 0.0 0.0 9.0
 2 -1 0 0 101   0  0.000000e+00  0.000000e+00 -3.175209e+03  3.175209e+03 0.0 0.0 9.0
 2  1 1 2 103   0  1.715119e+03  1.649386e+03 -9.244687e+02  2.552793e+03 0.0022 0.0 9.0
22  1 1 2   0   0 -1.715119e+03 -1.649386e+03 -4.512319e+02  2.421924e+03 0.0 0.0 9.0
#pdf 21 2 2.768474e-01 4.884937e-01 5000.0 4.784521e-02 3.299270e-03
</event>
<event>
4 7 1.0 5000.0 7.905138e-03 7.739137e-02
21 -1 0 0 103 101  0.000000e+00  0.000000e+00  1.299534e+03  1.299534e+03 0.0 0.0 9.0
 2 -1 0 0 101   0  0.000000e+00  0.000000e+00 -4.808829e+03  4.808829e+03 0.0 0.0 9.0
 2  1 1 2 103   0 -1.224462e+03 -4.920947e+02  8.393066e+02  1.563937e+03 0.0022 0.0 9.0
22  1 1 2   0   0  1.224462e+03  4.920947e+02 -4.348602e+03  4.544426e+03 0.0 0.0 9.0
#pdf 21 2 1.999283e-01 7.398199e-01 5000.0 1.259342e-01 4.644523e-05
</event>
<event>
4 7 1.0 5000.0 7.905138e-03 7.739137e-02
 2 -1 0 0 101   0  0.000000e+00  0.000000e+00  2.941906e+03  2.941906e+03 0.0 0.0 9.0
21 -1 0 0 103 101  0.000000e+00  0.000000e+00 -2.113080e+03  2.113080e+03 0.0 0.0 9.0
22  1 1 2   0   0  3.738621e+02  2.000012e+03  1.875246e+03  2.767014e+03 0.0 0.0 9.0
 2  1 1 2 103   0 -3.738621e+02 -2.000012e+03 -1.046420e+03  2.287972e+03 0.0022 0.0 9.0
#pdf 2 21 4.526009e-01 3.250893e-01 5000.0 1.004062e-01 2.193450e-01
</event>
<event>
4 7 1.0 5000.0 7.905138e-03 7.739137e-02
21 -1 0 0 103 101  0.000000e+00  0.000000e+00  2.175972e+03  2.175972e+03 0.0 0.0 9.0
 2 -1 0 0 101   0  0.000000e+00  0.000000e+00 -2.234352e+03  2.234352e+03 0.0 0.0 9.0
 2  1 1 2 103   0 -1.169706e+03 -1.012242e+03  1.542267e+03  2.184361e+03 0.0022 0.0 9.0
22  1 1 2   0   0  1.169706e+03  1.012242e+03 -1.600647e+03  2.225964e+03 0.0 0.0 9.0
#pdf 21 2 3.347650e-01 3.437465e-01 5000.0 2.352944e-02 2.107479e-02
</event>
<event>
4 7 1.0 5000.0 7.905138e-03 7.739137e-02
21 -1 0 0 103 101  0.000000e+00  0.000000e+00  2.649053e+03  2.649053e+03 0.0 0.0 9.0
 2 -1 0 0 101   0  0.000000e+00  0.000000e+00 -2.048240e+03  2.048240e+03 0.0 0.0 9.0
 2  1 1 2 103   0 -6.400975e+02  2.171273e+03  8.542678e+02  2.419489e+03 0.0022 0.0 9.0
22  1 1 2   0   0  6.400975e+02 -2.171273e+03 -2.534548e+02  2.277804e+03 0.0 0.0 9.0
#pdf 21 2 4.075466e-01 3.151138e-01 5000.0 9.526842e-03 2.993923e-02
</event>
<event>
4 7 1.0 5000.0 7.905138e-03 7.739137e-02
21 -1 0 0 103 101  0.000000e+00  0.000000e+00  3.552863e+03  3.552863e+03 0.0 0.0 9.0
 2 -1 0 0 101   0  0.000000e+00  0.000000e+00 -1.686894e+03  1.686894e+03 0.0 0.0 9.0
22  1 1 2   0   0  1.453039e+03  6.389054e+02 -1.061584e+03  1.909577e+03 0.0 0.0 9.0
 2  1 1 2 103   0 -1.453039e+03 -6.389054e+02  2.927554e+03  3.330180e+03 0.0022 0.0 9.0
#pdf 21 2 5.465944e-01 2.595221e-01 5000.0 1.453699e-03 5.926162e-02
</event>
<event>
4 7 1.0 5000.0 7.905138e-03 7.739137e-02
 2 -1 0 0 101   0  0.000000e+00  0.000000e+00  2.311129e+03  2.311129e+03 0.0 0.0 9.0
21 -1 0 0 103 101  0.000000e+00  0.000000e+00 -2.588201e+03  2.588201e+03 0.0 0.0 9.0
22  1 1 2   0   0  3.923354e+01  1.582600e+03  1.728723e+03  2.344066e+03 0.0 0.0 9.0
 2  1 1 2 103   0 -3.923354e+01 -1.582600e+03 -2.005795e+03  2.555264e+03 0.0022 0.0 9.0
#pdf 2 21 3.555583e-01 3.981848e-01 5000.0 1.857782e-01 1.442071e-01
</event>
<event>
4 7 1.0 5000.0 7.905138e-03 7.739137e-02
21 -1 0 0 103 101  0.000000e+00  0.000000e+00  3.287353e+03  3.287353e+03 0.0 0.0 9.0
 2 -1 0 0 101   0  0.000000e+00  0.000000e+00 -1.900036e+03  1.900036e+03 0.0 0.0 9.0
22  1 1 2   0   0 -5.518223e+02  2.382864e+03  1.608894e+02  2.451210e+03 0.0 0.0 9.0
 2  1 1 2 103   0  5.518223e+02 -2.382864e+03  1.226428e+03  2.736178e+03 0.0022 0.0 9.0
#pdf 21 2 5.057466e-01 2.923132e-01 5000.0 2.602673e-03 3.961229e-02
</event>
<event>
4 7 1.0 5000.0 7.905138e-03 7.739137e-02
21 -1 0 0 103 101  0.000000e+00  0.000000e+00  1.762778e+03  1.762778e+03 0.0 0.0 9.0
 2 -1 0 0 101   0  0.000000e+00  0.000000e+00 -3.606776e+03  3.606776e+03 0.0 0.0 9.0
 2  1 1 2 103   0  1.748195e+02  2.002624e+03 -2.542696e+03  3.241353e+03 0.0022 0.0 9.0
22  1 1 2   0   0 -1.748195e+02 -2.002624e+03  6.986981e+02  2.128202e+03 0.0 0.0 9.0
#pdf 21 2 2.711967e-01 5.548887e-01 5000.0 5.128520e-02 1.286333e-03
</event>
<event>
4 7 1.0 5000.0 7.905138e-03 7.739137e-02
21 -1 0 0 103 101  0.000000e+00  0.000000e+00  3.412552e+03  3.412552e+03 0.0 0.0 9.0
 2 -1 0 0 101   0  0.000000e+00  0.000000e+00 -1.975641e+03  1.975641e+03 0.0 0.0 9.0
 2  1 1 2 103   0  1.087976e+03  8.314566e+01  3.163122e+03  3.346034e+03 0.0022 0.0 9.0
22  1 1 2   0   0 -1.087976e+03 -8.314566e+01 -1.726212e+03  2.042159e+03 0.0 0.0 9.0
#pdf 21 2 5.250079e-01 3.039448e-01 5000.0 1.986028e-03 3.434791e-02
</event>
<event>
4 7 1.0 5000.0 7.905138e-03 7.739137e-02
21 -1 0 0 103 101  0.000000e+00  0.000000e+00  1.424567e+03  1.424567e+03 0.0 0.0 9.0
 2 -1 0 0 101   0  0.000000e+00  0.000000e+00 -4.698350e+03  4.698350e+03 0.0 0.0 9.0
 2  1 1 2 103   0 -1.010537e+03 -1.844769e+03  1.455195e+02  2.108444e+03 0.0022 0.0 9.0
22  1 1 2   0   0  1.010537e+03  1.844769e+03 -3.419303e+03  4.014472e+03 0.0 0.0 9.0
#pdf 21 2 2.191641e-01 7.228230e-01 5000.0 9.832398e-02 6.748057e-05
</event>
<event>
4 7 1.0 5000.0 7.905138e-03 7.739137e-02
 2 -1 0 0 101   0  0.000000e+00  0.000000e+00  2.765497e+03  2.765497e+03 0.0 0.0 9.0
21 -1 0 0 103 101  0.000000e+00  0.000000e+00 -2.177187e+03  2.177187e+03 0.0 0.0 9.0
 2  1 1 2 103   0  1.571233e+03 -4.027437e+02  2.148541e+03  2.692063e+03 0.0022 0.0 9.0
22  1 1 2   0   0 -1.571233e+03  4.027437e+02 -1.560230e+03  2.250621e+03 0.0 0.0 9.0
#pdf 2 21 4.254611e-01 3.349518e-01 5000.0 1.209430e-01 2.081398e-01
</event>
<event>
4 7 1.0 5000.0 7.905138e-03 7.739137e-02
21 -1 0 0 103 101  0.000000e+00  0.000000e+00  2.459412e+03  2.459412e+03 0.0 0.0 9.0
 2 -1 0 0 101   0  0.000000e+00  0.000000e+00 -2.829574e+03  2.829574e+03 0.0 0.0 9.0
22  1 1 2   0   0  3.112531e+01 -2.550106e+03  4.911734e+02  2.597164e+03 0.0 0.0 9.0
 2  1 1 2 103   0 -3.112531e+01  2.550106e+03 -8.613351e+02  2.691822e+03 0.0022 0.0 9.0
#pdf 21 2 3.783712e-01 4.353191e-01 5000.0 1.375143e-02 6.681305e-03
</event>
<event>
4 7 1.0 5000.0 7.905138e-03 7.739137e-02
21 -1 0 0 103 101  0.000000e+00  0.000000e+00  1.484110e+03  1.484110e+03 0.0 0.0 9.0
 2 -1 0 0 101   0  0.000000e+00  0.000000e+00 -4.191676e+03  4.191676e+03 0.0 0.0 9.0
22  1 1 2   0   0  1.288014e+03  6.244491e+02 -3.677808e+03  3.946541e+03 0.0 0.0 9.0
 2  1 1 2 103   0 -1.288014e+03 -6.244491e+02  9.702424e+02  1.729245e+03 0.0022 0.0 9.0
#pdf 21 2 2.283247e-01 6.448732e-01 5000.0 8.746579e-02 3.031178e-04
</event>
<event>
4 7 1.0 5000.0 7.905138e-03 7.739137e-02
21 -1 0 0 103 101  0.000000e+00  0.000000e+00  2.528000e+03  2.528000e+03 0.0 0.0 9.0
 2 -1 0 0 101   0  0.000000e+00  0.000000e+00 -2.432056e+03  2.432056e+03 0.0 0.0 9.0
 2  1 1 2 103   0  1.800244e+03  1.095187e+03 -1.259148e+03  2.454744e+03 0.0022 0.0 9.0
22  1 1 2   0   0 -1.800244e+03 -1.095187e+03  1.355092e+03  2.505312e+03 0.0 0.0 9.0
#pdf 21 2 3.889231e-01 3.741625e-01 5000.0 1.204590e-02 1.448141e-02
</event>
<event>
4 7 1.0 5000.0 7.905138e-03 7.739137e-02
 2 -1 0 0 101   0  0.000000e+00  0.000000e+00  2.228771e+03  2.228771e+03 0.0 0.0 9.0
21 -1 0 0 103 101  0.000000e+00  0.000000e+00 -2.754555e+03  2.754555e+03 0.0 0.0 9.0
22  1 1 2   0   0 -1.488449e+03  1.948802e+03  9.401161e+01  2.454007e+03 0.0 0.0 9.0
 2  1 1 2 103   0  1.488449e+03 -1.948802e+03 -6.197952e+02  2.529319e+03 0.0022 0.0 9.0
#pdf 2 21 3.428879e-01 4.237776e-01 5000.0 1.993625e-01 1.223021e-01
</event>
<event>
4 7 1.0 5000.0 7.905138e-03 7.739137e-02
21 -1 0 0 103 101  0.000000e+00  0.000000e+00  2.959597e+03  2.959597e+03 0.0 0.0 9.0
 2 -1 0 0 101   0  0.000000e+00  0.000000e+00 -2.050347e+03  2.050347e+03 0.0 0.0 9.0
 2  1 1 2 103   0  1.383085e+03  1.503585e+03  1.854279e+03  2.758994e+03 0.0022 0.0 9.0
22  1 1 2   0   0 -1.383085e+03 -1.503585e+03 -9.450293e+02  2.250950e+03 0.0 0.0 9.0
#pdf 21 2 4.553226e-01 3.154379e-01 5000.0 5.146129e-03 2.981949e-02
</event>
<event>
4 7 1.0 5000.0 7.905138e-03 7.739137e-02
 2 -1 0 0 101   0  0.000000e+00  0.000000e+00  2.667504e+03  2.667504e+03 0.0 0.0 9.0
21 -1 0 0 103 101  0.000000e+00  0.000000e+00 -2.342518e+03  2.342518e+03 0.0 0.0 9.0
22  1 1 2   0   0  8.711276e+02 -5.322862e+02 -2.124095e+03  2.356687e+03 0.0 0.0 9.0
 2  1 1 2 103   0 -8.711276e+02  5.322862e+02  2.449081e+03  2.653336e+03 0.0022 0.0 9.0
#pdf 2 21 4.103853e-01 3.603874e-01 5000.0 1.334757e-01 1.807479e-01
</event>
<event>
4 7 1.0 5000.0 7.905138e-03 7.739137e-02
 2 -1 0 0 101   0  0.000000e+00  0.000000e+00  2.575430e+03  2.575430e+03 0.0 0.0 9.0
21 -1 0 0 103 101  0.000000e+00  0.000000e+00 -1.894810e+03  1.894810e+03 0.0 0.0 9.0
 2  1 1 2 103   0 -8.316052e+01  2.192363e+03  7.923109e+01  2.195369e+03 0.0022 0.0 9.0
22  1 1 2   0   0  8.316052e+01 -2.192363e+03  6.013888e+02  2.274871e+03 0.0 0.0 9.0
#pdf 2 21 3.962200e-01 2.915093e-01 5000.0 1.459850e-01 2.597047e-01
</event>
<event>
4 7 1.0 5000.0 7.905138e-03 7.739137e-02
 2 -1 0 0 101   0  0.000000e+00  0.000000e+00  3.642808e+03  3.642808e+03 0.0 0.0 9.0
21 -1 0 0 103 101  0.000000e+00  0.000000e+00 -1.742771e+03  1.742771e+03 0.0 0.0 9.0
22  1 1 2   0   0  2.086341e+03  4.136274e+01 -5.591305e+02  2.160360e+03 0.0 0.0 9.0
 2  1 1 2 103   0 -2.086341e+03 -4.136274e+01  2.459168e+03  3.225218e+03 0.0022 0.0 9.0
#pdf 2 21 5.604320e-01 2.681186e-01 5000.0 4.220875e-02 2.896432e-01
</event>
<event>
4 7 1.0 5000.0 7.905138e-03 7.739137e-02
 2 -1 0 0 101   0  0.000000e+00  0.000000e+00  3.120438e+03  3.120438e+03 0.0 0.0 9.0
21 -1 0 0 103 101  0.000000e+00  0.000000e+00 -1.622206e+03  1.622206e+03 0.0 0.0 9.0
22  1 1 2   0   0 -9.843116e+02  2.205516e+02 -1.370519e+03  1.701715e+03 0.0 0.0 9.0
 2  1 1 2 103   0  9.843116e+02 -2.205516e+02  2.868752e+03  3.040929e+03 0.0022 0.0 9.0
#pdf 2 21 4.800674e-01 2.495701e-01 5000.0 8.215557e-02 3.141785e-01
</event>
<event>
4 7 1.0 5000.0 7.905138e-03 7.739137e-02
 2 -1 0 0 101   0  0.000000e+00  0.000000e+00  1.819538e+03  1.819538e+03 0.0 0.0 9.0
21 -1 0 0 103 101  0.000000e+00  0.000000e+00 -3.521251e+03  3.521251e+03 0.0 0.0 9.0
22  1 1 2   0   0  8.142178e+02  4.072310e+02  1.640844e+03  1.876474e+03 0.0 0.0 9.0
 2  1 1 2 103   0 -8.142178e+02 -4.072310e+02 -3.342557e+03  3.464314e+03 0.0022 0.0 9.0
#pdf 2 21 2.799289e-01 5.417309e-01 5000.0 2.743639e-01 4.984918e-02
</event>
<event>
4 7 1.0 5000.0 7.905138e-03 7.739137e-02
 2 -1 0 0 101   0  0.000000e+00  0.000000e+00  1.551669e+03  1.551669e+03 0.0 0.0 9.0
21 -1 0 0 103 101  0.000000e+00  0.000000e+00 -3.656720e+03  3.656720e+03 0.0 0.0 9.0
22  1 1 2   0   0 -1.357975e+03  1.511187e+03 -2.411986e+03  3.153642e+03 0.0 0.0 9.0
 2  1 1 2 103   0  1.357975e+03 -1.511187e+03  3.069347e+02  2.054748e+03 0.0022 0.0 9.0
#pdf 2 21 2.387184e-01 5.625724e-01 5000.0 3.288058e-01 4.138880e-02
</event>
<event>
4 7 1.0 5000.0 7.905138e-03 7.739137e-02
 2 -1 0 0 101   0  0.000000e+00  0.000000e+00  1.565821e+03  1.565821e+03 0.0 0.0 9.0
21 -1 0 0 103 101  0.000000e+00  0.000000e+00 -4.486658e+03  4.486658e+03 0.0 0.0 9.0
22  1 1 2   0   0  2.029769e+03 -1.467994e+03 -2.449423e+03  3.503519e+03 0.0 0.0 9.0
 2  1 1 2 103   0 -2.029769e+03  1.467994e+03 -4.714135e+02  2.548960e+03 0.0022 0.0 9.0
#pdf 2 21 2.408955e-01 6.902551e-01 5000.0 3.258560e-01 1.020478e-02
</event>
<event>
4 7 1.0 5000.0 7.905138e-03 7.739137e-02
 2 -1 0 0 101   0  0.000000e+00  0.000000e+00  3.244437e+03  3.244437e+03 0.0 0.0 9.0
21 -1 0 0 103 101  0.000000e+00  0.000000e+00 -1.728131e+03  1.728131e+03 0.0 0.0 9.0
 2  1 1 2 103   0 -3.577703e+01 -2.179753e+03 -2.122988e+02  2.190360e+03 0.0022 0.0 9.0
22  1 1 2   0   0  3.577703e+01  2.179753e+03  1.728605e+03  2.782208e+03 0.0 0.0 9.0
#pdf 2 21 4.991441e-01 2.658663e-01 5000.0 7.093114e-02 2.925913e-01
</event>
<event>
4 7 1.0 5000.0 7.905138e-03 7.739137e-02
21 -1 0 0 103 101  0.000000e+00  0.000000e+00  4.979625e+03  4.979625e+03 0.0 0.0 9.0
 2 -1 0 0 101   0  0.000000e+00  0.000000e+00 -1.228469e+03  1.228469e+03 0.0 0.0 9.0
 2  1 1 2 103   0  3.439071e+02  1.601198e+03 -4.504997e+02  1.698546e+03 0.0022 0.0 9.0
22  1 1 2   0   0 -3.439071e+02 -1.601198e+03  4.201656e+03  4.509548e+03 0.0 0.0 9.0
#pdf 21 2 7.660962e-01 1.889952e-01 5000.0 2.500211e-05 1.454429e-01
</event>
<event>
4 7 1.0 5000.0 7.905138e-03 7.739137e-02
 2 -1 0 0 101   0  0.000000e+00  0.000000e+00  1.557281e+03  1.557281e+03 0.0 0.0 9.0
21 -1 0 0 103 101  0.000000e+00  0.000000e+00 -3.979182e+03  3.979182e+03 0.0 0.0 9.0
 2  1 1 2 103   0  4.545473e+02 -2.154775e+03  7.970855e+01  2.203638e+03 0.0022 0.0 9.0
22  1 1 2   0   0 -4.545473e+02  2.154775e+03 -2.501610e+03  3.332824e+03 0.0 0.0 9.0
#pdf 2 21 2.395816e-01 6.121818e-01 5000.0 3.276341e-01 2.547145e-02
</event>
<event>
4 7 1.0 5000.0 7.905138e-03 7.739137e-02
 2 -1 0 0 101   0  0.000000e+00  0.000000e+00  2.959919e+03  2.959919e+03 0.0 0.0 9.0
21 -1 0 0 103 101  0.000000e+00  0.000000e+00 -2.127406e+03  2.127406e+03 0.0 0.0 9.0
22  1 1 2   0   0 -1.938780e+03 -1.591155e+03  3.357778e+02  2.530492e+03 0.0 0.0 9.0
 2  1 1 2 103   0  1.938780e+03  1.591155e+03  4.967355e+02  2.556832e+03 0.0022 0.0 9.0
#pdf 2 21 4.553721e-01 3.272932e-01 5000.0 9.844851e-02 2.168127e-01
</event>
<event>
4 7 1.0 5000.0 7.905138e-03 7.739137e-02
 2 -1 0 0 101   0  0.000000e+00  0.000000e+00  2.236723e+03  2.236723e+03 0.0 0.0 9.0
21 -1 0 0 103 101  0.000000e+00  0.000000e+00 -2.793943e+03  2.793943e+03 0.0 0.0 9.0
 2  1 1 2 103   0 -1.991173e+03  8.947452e+02  9.471022e+02  2.379568e+03 0.0022 0.0 9.0
22  1 1 2   0   0  1.991173e+03 -8.947452e+02 -1.504322e+03  2.651099e+03 0.0 0.0 9.0
#pdf 2 21 3.441112e-01 4.298374e-01 5000.0 1.980270e-01 1.174606e-01
</event>
<event>
4 7 1.0 5000.0 7.905138e-03 7.739137e-02
21 -1 0 0 103 101  0.000000e+00  0.000000e+00  2.441393e+03  2.441393e+03 0.0 0.0 9.0
 2 -1 0 0 101   0  0.000000e+00  0.000000e+00 -2.639674e+03  2.639674e+03 0.0 0.0 9.0
22  1 1 2   0   0 -5.116921e+02  2.022215e+03  1.348786e+03  2.484030e+03 0.0 0.0 9.0
 2  1 1 2 103   0  5.116921e+02 -2.022215e+03 -1.547067e+03  2.597036e+03 0.0022 0.0 9.0
#pdf 21 2 3.755989e-01 4.061036e-01 5000.0 1.422956e-02 9.702926e-03
</event>
<event>
4 7 1.0 5000.0 7.905138e-03 7.739137e-02
21 -1 0 0 103 101  0.000000e+00  0.000000e+00  2.980822e+03  2.980822e+03 0.0 0.0 9.0
 2 -1 0 0 101   0  0.000000e+00  0.000000e+00 -2.092937e+03  2.092937e+03 0.0 0.0 9.0
 2  1 1 2 103   0  1.690295e+03  1.804467e+03  8.037177e+02  2.599839e+03 0.0022 0.0 9.0
22  1 1 2   0   0 -1.690295e+03 -1.804467e+03  8.416722e+01  2.473920e+03 0.0 0.0 9.0
#pdf 21 2 4.585880e-01 3.219903e-01 5000.0 4.927381e-03 2.751412e-02
</event>
<event>
4 7 1.0 5000.0 7.905138e-03 7.739137e-02
 2 -1 0 0 101   0  0.000000e+00  0.000000e+00  4.723102e+03  4.723102e+03 0.0 0.0 9.0
21 -1 0 0 103 101  0.000000e+00  0.000000e+00 -1.045053e+03  1.045053e+03 0.0 0.0 9.0
 2  1 1 2 103   0  9.193868e+02  1.299953e+03  3.850417e+03  4.166637e+03 0.0022 0.0 9.0
22  1 1 2   0   0 -9.193868e+02 -1.299953e+03 -1.723688e+02  1.601518e+03 0.0 0.0 9.0
#pdf 2 21 7.266310e-01 1.607774e-01 5000.0 6.119450e-03 4.355623e-01
</event>
<event>
4 7 1.0 5000.0 7.905138e-03 7.739137e-02
 2 -1 0 0 101   0  0.000000e+00  0.000000e+00  2.659426e+03  2.659426e+03 0.0 0.0 9.0
21 -1 0 0 103 101  0.000000e+00  0.000000e+00 -2.380156e+03  2.380156e+03 0.0 0.0 9.0
 2  1 1 2 103   0 -5.146573e+01  2.334242e+03  1.078370e+03  2.571811e+03 0.0022 0.0 9.0
22  1 1 2   0   0  5.146573e+01 -2.334242e+03 -7.990992e+02  2.467771e+03 0.0 0.0 9.0
#pdf 2 21 4.091425e-01 3.661778e-01 5000.0 1.345438e-01 1.748193e-01
</event>
<event>
4 7 1.0 5000.0 7.905138e-03 7.739137e-02
 2 -1 0 0 101   0  0.000000e+00  0.000000e+00  1.102233e+03  1.102233e+03 0.0 0.0 9.0
21 -1 0 0 103 101  0.000000e+00  0.000000e+00 -5.550227e+03  5.550227e+03 0.0 0.0 9.0
22  1 1 2   0   0 -1.069173e+03  2.097265e+02  7.621199e+02  1.329640e+03 0.0 0.0 9.0
 2  1 1 2 103   0  1.069173e+03 -2.097265e+02 -5.210114e+03  5.322819e+03 0.0022 0.0 9.0
#pdf 2 21 1.695743e-01 8.538810e-01 5000.0 4.237440e-01 4.703891e-04
</event>
<event>
4 7 1.0 5000.0 7.905138e-03 7.739137e-02
 2 -1 0 0 101   0  0.000000e+00  0.000000e+00  2.222133e+03  2.222133e+03 0.0 0.0 9.0
21 -1 0 0 103 101  0.000000e+00  0.000000e+00 -2.793929e+03  2.793929e+03 0.0 0.0 9.0
 2  1 1 2 103   0  1.964119e+03 -8.234394e+02  1.015904e+03  2.359635e+03 0.0022 0.0 9.0
22  1 1 2   0   0 -1.964119e+03  8.234394e+02 -1.587701e+03  2.656428e+03 0.0 0.0 9.0
#pdf 2 21 3.418666e-01 4.298353e-01 5000.0 2.004811e-01 1.174623e-01
</event>
<event>
4 7 1.0 5000.0 7.905138e-03 7.739137e-02
21 -1 0 0 103 101  0.000000e+00  0.000000e+00  1.942934e+03  1.942934e+03 0.0 0.0 9.0
 2 -1 0 0 101   0  0.000000e+00  0.000000e+00 -3.227248e+03  3.227248e+03 0.0 0.0 9.0
22  1 1 2   0   0  1.809543e+03 -7.781443e+02 -2.238271e+03  2.981578e+03 0.0 0.0 9.0
 2  1 1 2 103   0 -1.809543e+03  7.781443e+02  9.539568e+02  2.188604e+03 0.0022 0.0 9.0
#pdf 21 2 2.989129e-01 4.964997e-01 5000.0 3.651044e-02 2.957910e-03
</event>
<event>
4 7 1.0 5000.0 7.905138e-03 7.739137e-02
21 -1 0 0 103 101  0.000000e+00  0.000000e+00  3.416971e+03  3.416971e+03 0.0 0.0 9.0
 2 -1 0 0 101   0  0.000000e+00  0.000000e+00 -1.862540e+03  1.862540e+03 0.0 0.0 9.0
 2  1 1 2 103   0  1.343424e+02 -2.477894e+03  1.252413e+03  2.779667e+03 0.0022 0.0 9.0
22  1 1 2   0   0 -1.343424e+02  2.477894e+03  3.020184e+02  2.499844e+03 0.0 0.0 9.0
#pdf 21 2 5.256879e-01 2.865446e-01 5000.0 1.967017e-03 4.247970e-02
</event>
<event>
4 7 1.0 5000.0 7.905138e-03 7.739137e-02
 2 -1 0 0 101   0  0.000000e+00  0.000000e+00  2.548010e+03  2.548010e+03 0.0 0.0 9.0
21 -1 0 0 103 101  0.000000e+00  0.000000e+00 -2.424425e+03  2.424425e+03 0.0 0.0 9.0
 2  1 1 2 103   0 -2.109717e+03  1.472926e+02 -1.244314e+03  2.453756e+03 0.0022 0.0 9.0
22  1 1 2   0   0  2.109717e+03 -1.472926e+02  1.367899e+03  2.518680e+03 0.0 0.0 9.0
#pdf 2 21 3.920016e-01 3.729885e-01 5000.0 1.498452e-01 1.679992e-01
</event>
<event>
4 7 1.0 5000.0 7.905138e-03 7.739137e-02
21 -1 0 0 103 101  0.000000e+00  0.000000e+00  2.530454e+03  2.530454e+03 0.0 0.0 9.0
 2 -1 0 0 101   0  0.000000e+00  0.000000e+00 -2.083735e+03  2.083735e+03 0.0 0.0 9.0
 2  1 1 2 103   0  1.203441e+03  1.783068e+03 -5.836703e+02  2.228962e+03 0.0022 0.0 9.0
22  1 1 2   0   0 -1.203441e+03 -1.783068e+03  1.030389e+03  2.385226e+03 0.0 0.0 9.0
#pdf 21 2 3.893006e-01 3.205746e-01 5000.0 1.198870e-02 2.799515e-02
</event>
<event>
4 7 1.0 5000.0 7.905138e-03 7.739137e-02
21 -1 0 0 103 101  0.000000e+00  0.000000e+00  1.962529e+03  1.962529e+03 0.0 0.0 9.0
 2 -1 0 0 101   0  0.000000e+00  0.000000e+00 -3.101494e+03  3.101494e+03 0.0 0.0 9.0
 2  1 1 2 103   0 -2.177294e+03  1.069307e+03 -1.031598e+03  2.635947e+03 0.0022 0.0 9.0
22  1 1 2   0   0  2.177294e+03 -1.069307e+03 -1.073673e+02  2.428076e+03 0.0 0.0 9.0
#pdf 21 2 3.019276e-01 4.771530e-01 5000.0 3.518904e-02 3.847609e-03
</event>
<event>
4 7 1.0 5000.0 7.905138e-03 7.739137e-02
 2 -1 0 0 101   0  0.000000e+00  0.000000e+00  2.991854e+03  2.991854e+03 0.0 0.0 9.0
21 -1 0 0 103 101  0.000000e+00  0.000000e+00 -2.122462e+03  2.122462e+03 0.0 0.0 9.0
 2  1 1 2 103   0 -2.424692e+03  2.472215e+02 -2.149552e+02  2.446723e+03 0.0022 0.0 9.0
22  1 1 2   0   0  2.424692e+03 -2.472215e+02  1.084347e+03  2.667594e+03 0.0 0.0 9.0
#pdf 2 21 4.602853e-01 3.265327e-01 5000.0 9.503816e-02 2.176848e-01
</event>
<event>
4 7 1.0 5000.0 7.905138e-03 7.739137e-02
 2 -1 0 0 101   0  0.000000e+00  0.000000e+00  1.268951e+03  1.268951e+03 0.0 0.0 9.0
21 -1 0 0 103 101  0.000000e+00  0.000000e+00 -4.263834e+03  4.263834e+03 0.0 0.0 9.0
 2  1 1 2 103   0 -1.423842e+03  1.643525e+03 -2.479672e+03  3.298071e+03 0.0022 0.0 9.0
22  1 1 2   0   0  1.423842e+03 -1.643525e+03 -5.152113e+02  2.234713e+03 0.0 0.0 9.0
#pdf 2 21 1.952232e-01 6.559744e-01 5000.0 3.886428e-01 1.566280e-02
</event>
<event>
4 7 1.0 5000.0 7.905138e-03 7.739137e-02
21 -1 0 0 103 101  0.000000e+00  0.000000e+00  3.004551e+03  3.004551e+03 0.0 0.0 9.0
 2 -1 0 0 101   0  0.000000e+00  0.000000e+00 -2.057636e+03  2.057636e+03 0.0 0.0 9.0
22  1 1 2   0   0  6.417139e+02  1.040177e+03 -1.730745e+03  2.118783e+03 0.0 0.0 9.0
 2  1 1 2 103   0 -6.417139e+02 -1.040177e+03  2.677659e+03  2.943403e+03 0.0022 0.0 9.0
#pdf 21 2 4.622385e-01 3.165594e-01 5000.0 4.693725e-03 2.940944e-02
</event>
<event>
4 7 1.0 5000.0 7.905138e-03 7.739137e-02
 2 -1 0 0 101   0  0.000000e+00  0.000000e+00  3.181128e+03  3.181128e+03 0.0 0.0 9.0
21 -1 0 0 103 101  0.000000e+00  0.000000e+00 -1.958001e+03  1.958001e+03 0.0 0.0 9.0
22  1 1 2   0   0 -1.568041e+02  2.348691e+03  1.465384e+03  2.772776e+03 0.0 0.0 9.0
 2  1 1 2 103   0  1.568041e+02 -2.348691e+03 -2.422577e+02  2.366353e+03 0.0022 0.0 9.0
#pdf 2 21 4.894042e-01 3.012309e-01 5000.0 7.651822e-02 2.476916e-01
</event>
<event>
4 7 1.0 5000.0 7.905138e-03 7.739137e-02
 2 -1 0 0 101   0  0.000000e+00  0.000000e+00  2.784478e+03  2.784478e+03 0.0 0.0 9.0
21 -1 0 0 103 101  0.000000e+00  0.000000e+00 -2.250706e+03  2.250706e+03 0.0 0.0 9.0
 2  1 1 2 103   0  1.647137e+02  2.391004e+03  9.941804e+02  2.594691e+03 0.0022 0.0 9.0
22  1 1 2   0   0 -1.647137e+02 -2.391004e+03 -4.604079e+02  2.440493e+03 0.0 0.0 9.0
#pdf 2 21 4.283813e-01 3.462624e-01 5000.0 1.186110e-01 1.956906e-01
</event>
<event>
4 7 1.0 5000.0 7.905138e-03 7.739137e-02
21 -1 0 0 103 101  0.000000e+00  0.000000e+00  1.469687e+03  1.469687e+03 0.0 0.0 9.0
 2 -1 0 0 101   0  0.000000e+00  0.000000e+00 -4.213671e+03  4.213671e+03 0.0 0.0 9.0
22  1 1 2   0   0  1.976733e+03  9.601479e+02 -2.705352e+03  3.485439e+03 0.0 0.0 9.0
 2  1 1 2 103   0 -1.976733e+03 -9.601479e+02 -3.863217e+01  2.197919e+03 0.0022 0.0 9.0
#pdf 21 2 2.261057e-01 6.482571e-01 5000.0 8.996769e-02 2.855950e-04
</event>
<event>
4 7 1.0 5000.0 7.905138e-03 7.739137e-02
21 -1 0 0 103 101  0.000000e+00  0.000000e+00  3.446764e+03  3.446764e+03 0.0 0.0 9.0
 2 -1 0 0 101   0  0.000000e+00  0.000000e+00 -1.811467e+03  1.811467e+03 0.0 0.0 9.0
 2  1 1 2 103   0  6.824642e+02 -2.211466e+03 -1.734980e+02  2.320871e+03 0.0022 0.0 9.0
22  1 1 2   0   0 -6.824642e+02  2.211466e+03  1.808796e+03  2.937360e+03 0.0 0.0 9.0
#pdf 21 2 5.302714e-01 2.786872e-01 5000.0 1.842904e-03 4.677485e-02
</event>
<event>
4 7 1.0 5000.0 7.905138e-03 7.739137e-02
 2 -1 0 0 101   0  0.000000e+00  0.000000e+00  4.119324e+03  4.119324e+03 0.0 0.0 9.0
21 -1 0 0 103 101  0.000000e+00  0.000000e+00 -1.459847e+03  1.459847e+03 0.0 0.0 9.0
 2  1 1 2 103   0  2.563387e+02 -1.804751e+03  3.195729e+03  3.679065e+03 0.0022 0.0 9.0
22  1 1 2   0   0 -2.563387e+02  1.804751e+03 -5.362522e+02  1.900106e+03 0.0 0.0 9.0
#pdf 2 21 6.337421e-01 2.245919e-01 5000.0 2.019573e-02 3.481278e-01
</event>
<event>
4 7 1.0 5000.0 7.905138e-03 7.739137e-02
21 -1 0 0 103 101  0.000000e+00  0.000000e+00  4.208522e+03  4.208522e+03 0.0 0.0 9.0
 2 -1 0 0 101   0  0.000000e+00  0.000000e+00 -1.509542e+03  1.509542e+03 0.0 0.0 9.0
 2  1 1 2 103   0  1.240918e+03 -1.478436e+03  3.188083e+03  3.726865e+03 0.0022 0.0 9.0
22  1 1 2   0   0 -1.240918e+03  1.478436e+03 -4.891024e+02  1.991199e+03 0.0 0.0 9.0
#pdf 21 2 6.474649e-01 2.322372e-01 5000.0 2.895924e-04 8.328018e-02
</event>
<event>
4 7 1.0 5000.0 7.905138e-03 7.739137e-02
21 -1 0 0 103 101  0.000000e+00  0.000000e+00  2.122207e+03  2.122207e+03 0.0 0.0 9.0
 2 -1 0 0 101   0  0.000000e+00  0.000000e+00 -2.964471e+03  2.964471e+03 0.0 0.0 9.0
 2  1 1 2 103   0  1.135805e+03  7.290321e+02 -2.564886e+03  2.898307e+03 0.0022 0.0 9.0
22  1 1 2   0   0 -1.135805e+03 -7.290321e+02  1.722622e+03  2.188371e+03 0.0 0.0 9.0
#pdf 21 2 3.264933e-01 4.560725e-01 5000.0 2.603980e-02 5.095184e-03
</event>
<event>
4 7 1.0 5000.0 7.905138e-03 7.739137e-02
21 -1 0 0 103 101  0.000000e+00  0.000000e+00  2.611237e+03  2.611237e+03 0.0 0.0 9.0
 2 -1 0 0 101   0  0.000000e+00  0.000000e+00 -2.353442e+03  2.353442e+03 0.0 0.0 9.0
 2  1 1 2 103   0  8.094033e+02  5.184880e+02  2.417029e+03  2.601152e+03 0.0022 0.0 9.0
22  1 1 2   0   0 -8.094033e+02 -5.184880e+02 -2.159234e+03  2.363526e+03 0.0 0.0 9.0
#pdf 21 2 4.017287e-01 3.620680e-01 5000.0 1.025422e-02 1.681723e-02
</event>
<event>
4 7 1.0 5000.0 7.905138e-03 7.739137e-02
21 -1 0 0 103 101  0.000000e+00  0.000000e+00  2.060588e+03  2.060588e+03 0.0 0.0 9.0
 2 -1 0 0 101   0  0.000000e+00  0.000000e+00 -3.004433e+03  3.004433e+03 0.0 0.0 9.0
22  1 1 2   0   0  2.208165e+03 -3.142344e+02 -1.594381e+03  2.741676e+03 0.0 0.0 9.0
 2  1 1 2 103   0 -2.208165e+03  3.142344e+02  6.505364e+02  2.323345e+03 0.0022 0.0 9.0
#pdf 21 2 3.170136e-01 4.622205e-01 5000.0 2.924533e-02 4.694851e-03
</event>
<event>
4 7 1.0 5000.0 7.905138e-03 7.739137e-02
 2 -1 0 0 101   0  0.000000e+00  0.000000e+00  2.203089e+03  2.203089e+03 0.0 0.0 9.0
21 -1 0 0 103 101  0.000000e+00  0.000000e+00 -2.732578e+03  2.732578e+03 0.0 0.0 9.0
22  1 1 2   0   0  1.524029e+03  1.392230e+03  1.069282e+03  2.324722e+03 0.0 0.0 9.0
 2  1 1 2 103   0 -1.524029e+03 -1.392230e+03 -1.598771e+03  2.610946e+03 0.0022 0.0 9.0
#pdf 2 21 3.389368e-01 4.203967e-01 5000.0 2.037082e-01 1.250630e-01
</event>
<event>
4 7 1.0 5000.0 7.905138e-03 7.739137e-02
 2 -1 0 0 101   0  0.000000e+00  0.000000e+00  2.749853e+03  2.749853e+03 0.0 0.0 9.0
21 -1 0 0 103 101  0.000000e+00  0.000000e+00 -2.486499e+03  2.486499e+03 0.0 0.0 9.0
 2  1 1 2 103   0  2.216851e+03 -7.629389e+02  1.291161e+03  2.676490e+03 0.0022 0.0 9.0
22  1 1 2   0   0 -2.216851e+03  7.629389e+02 -1.027807e+03  2.559862e+03 0.0 0.0 9.0
#pdf 2 21 4.230543e-01 3.825383e-01 5000.0 1.228893e-01 1.587259e-01
</event>
<event>
4 7 1.0 5000.0 7.905138e-03 7.739137e-02
 2 -1 0 0 101   0  0.000000e+00  0.000000e+00  2.659900e+03  2.659900e+03 0.0 0.0 9.0
21 -1 0 0 103 101  0.000000e+00  0.000000e+00 -2.301082e+03  2.301082e+03 0.0 0.0 9.0
 2  1 1 2 103   0 -7.708980e+02  2.784062e+02  2.519817e+03  2.649768e+03 0.0022 0.0 9.0
22  1 1 2   0   0  7.708980e+02 -2.784062e+02 -2.160999e+03  2.311214e+03 0.0 0.0 9.0
#pdf 2 21 4.092154e-01 3.540126e-01 5000.0 1.344810e-01 1.874050e-01
</event>
<event>
4 7 1.0 5000.0 7.905138e-03 7.739137e-02
21 -1 0 0 103 101  0.000000e+00  0.000000e+00  3.108560e+03  3.108560e+03 0.0 0.0 9.0
 2 -1 0 0 101   0  0.000000e+00  0.000000e+00 -2.110041e+03  2.110041e+03 0.0 0.0 9.0
22  1 1 2   0   0 -1.283841e+03  1.979996e+03  1.513262e+03  2.803318e+03 0.0 0.0 9.0
 2  1 1 2 103   0  1.283841e+03 -1.979996e+03 -5.147428e+02  2.415283e+03 0.0022 0.0 9.0
#pdf 21 2 4.782401e-01 3.246217e-01 5000.0 3.791571e-03 2.664261e-02
</event>
<event>
4 7 1.0 5000.0 7.905138e-03 7.739137e-02
 2 -1 0 0 101   0  0.000000e+00  0.000000e+00  2.144358e+03  2.144358e+03 0.0 0.0 9.0
21 -1 0 0 103 101  0.000000e+00  0.000000e+00 -2.686452e+03  2.686452e+03 0.0 0.0 9.0
22  1 1 2   0   0  1.620812e+03 -7.113187e+02 -1.902372e+03  2.598466e+03 0.0 0.0 9.0
 2  1 1 2 103   0 -1.620812e+03  7.113187e+02  1.360278e+03  2.232344e+03 0.0022 0.0 9.0
#pdf 2 21 3.299012e-01 4.133003e-01 5000.0 2.138364e-01 1.309906e-01
</event>
<event>
4 7 1.0 5000.0 7.905138e-03 7.739137e-02
 2 -1 0 0 101   0  0.000000e+00  0.000000e+00  1.930178e+03  1.930178e+03 0.0 0.0 9.0
21 -1 0 0 103 101  0.000000e+00  0.000000e+00 -3.312214e+03  3.312214e+03 0.0 0.0 9.0
 2  1 1 2 103   0  1.040742e+03 -1.539148e+03  1.086820e+03  2.152510e+03 0.0022 0.0 9.0
22  1 1 2   0   0 -1.040742e+03  1.539148e+03 -2.468856e+03  3.089882e+03 0.0 0.0 9.0
#pdf 2 21 2.969505e-01 5.095714e-01 5000.0 2.529423e-01 6.527600e-02
</event>
<event>
4 7 1.0 5000.0 7.905138e-03 7.739137e-02
21 -1 0 0 103 101  0.000000e+00  0.000000e+00  1.969658e+03  1.969658e+03 0.0 0.0 9.0
 2 -1 0 0 101   0  0.000000e+00  0.000000e+00 -3.057044e+03  3.057044e+03 0.0 0.0 9.0
 2  1 1 2 103   0  2.007330e+03 -1.019953e+03  4.554926e+02  2.297205e+03 0.0022 0.0 9.0
22  1 1 2   0   0 -2.007330e+03  1.019953e+03 -1.542878e+03  2.729497e+03 0.0 0.0 9.0
#pdf 21 2 3.030243e-01 4.703144e-01 5000.0 3.473051e-02 4.217076e-03
</event>
<event>
4 7 1.0 5000.0 7.905138e-03 7.739137e-02
21 -1 0 0 103 101  0.000000e+00  0.000000e+00  4.131705e+03  4.131705e+03 0.0 0.0 9.0
 2 -1 0 0 101   0  0.000000e+00  0.000000e+00 -1.504598e+03  1.504598e+03 0.0 0.0 9.0
22  1 1 2   0   0  1.125039e+03  1.229877e+03 -7.822846e+02  1.841271e+03 0.0 0.0 9.0
 2  1 1 2 103   0 -1.125039e+03 -1.229877e+03  3.409392e+03  3.795031e+03 0.0022 0.0 9.0
#pdf 21 2 6.356469e-01 2.314766e-01 5000.0 3.556914e-04 8.407331e-02
</event>
<event>
4 7 1.0 5000.0 7.905138e-03 7.739137e-02
21 -1 0 0 103 101  0.000000e+00  0.000000e+00  3.202513e+03  3.202513e+03 0.0 0.0 9.0
 2 -1 0 0 101   0  0.000000e+00  0.000000e+00 -1.931152e+03  1.931152e+03 0.0 0.0 9.0
 2  1 1 2 103   0 -8.109614e+02 -6.283761e+02 -1.702555e+03  1.987765e+03 0.0022 0.0 9.0
22  1 1 2   0   0  8.109614e+02  6.283761e+02  2.973916e+03  3.145901e+03 0.0 0.0 9.0
#pdf 21 2 4.926943e-01 2.971004e-01 5000.0 3.116027e-03 3.735002e-02
</event>
<event>
4 7 1.0 5000.0 7.905138e-03 7.739137e-02
21 -1 0 0 103 101  0.000000e+00  0.000000e+00  1.874731e+03  1.874731e+03 0.0 0.0 9.0
 2 -1 0 0 101   0  0.000000e+00  0.000000e+00 -3.345058e+03  3.345058e+03 0.0 0.0 9.0
22  1 1 2   0   0  1.354898e+03  1.961210e+03 -1.535008e+03  2.835197e+03 0.0 0.0 9.0
 2  1 1 2 103   0 -1.354898e+03 -1.961210e+03  6.468034e+01  2.384592e+03 0.0022 0.0 9.0
#pdf 21 2 2.884201e-01 5.146244e-01 5000.0 4.152563e-02 2.299905e-03
</event>
<event>
4 7 1.0 5000.0 7.905138e-03 7.739137e-02
21 -1 0 0 103 101  0.000000e+00  0.000000e+00  1.934220e+03  1.934220e+03 0.0 0.0 9.0
 2 -1 0 0 101   0  0.000000e+00  0.000000e+00 -3.352642e+03  3.352642e+03 0.0 0.0 9.0
22  1 1 2   0   0  2.121922e+03  1.136426e+00 -2.170697e+03  3.035536e+03 0.0 0.0 9.0
 2  1 1 2 103   0 -2.121922e+03 -1.136426e+00  7.522742e+02  2.251326e+03 0.0022 0.0 9.0
#pdf 21 2 2.975723e-01 5.157911e-01 5000.0 3.713077e-02 2.262457e-03
</event>
<event>
4 7 1.0 5000.0 7.905138e-03 7.739137e-02
21 -1 0 0 103 101  0.000000e+00  0.000000e+00  1.462453e+03  1.462453e+03 0.0 0.0 9.0
 2 -1 0 0 101   0  0.000000e+00  0.000000e+00 -3.766727e+03  3.766727e+03 0.0 0.0 9.0
 2  1 1 2 103   0 -8.500045e+02 -2.062190e+03 -3.384500e+02  2.256033e+03 0.0022 0.0 9.0
22  1 1 2   0   0  8.500045e+02  2.062190e+03 -1.965825e+03  2.973147e+03 0.0 0.0 9.0
#pdf 21 2 2.249927e-01 5.794965e-01 5000.0 9.125470e-02 8.856247e-04
</event>
<event>
4 7 1.0 5000.0 7.905138e-03 7.739137e-02
 2 -1 0 0 101   0  0.000000e+00  0.000000e+00  1.426501e+03  1.426501e+03 0.0 0.0 9.0
21 -1 0 0 103 101  0.000000e+00  0.000000e+00 -4.054265e+03  4.054265e+03 0.0 0.0 9.0
22  1 1 2   0   0 -6.868829e+02  9.234424e+02  1.092314e+03  1.586728e+03 0.0 0.0 9.0
 2  1 1 2 103   0  6.868829e+02 -9.234424e+02 -3.720078e+03  3.894038e+03 0.0022 0.0 9.0
#pdf 2 21 2.194617e-01 6.237330e-01 5000.0 3.551501e-01 2.253312e-02
</event>
<event>
4 7 1.0 5000.0 7.905138e-03 7.739137e-02
 2 -1 0 0 101   0  0.000000e+00  0.000000e+00  1.682170e+03  1.682170e+03 0.0 0.0 9.0
21 -1 0 0 103 101  0.000000e+00  0.000000e+00 -3.796171e+03  3.796171e+03 0.0 0.0 9.0
22  1 1 2   0   0 -1.133522e+03 -1.637495e+03 -2.743079e+03  3.389800e+03 0.0 0.0 9.0
 2  1 1 2 103   0  1.133522e+03  1.637495e+03  6.290778e+02  2.088541e+03 0.0022 0.0 9.0
#pdf 2 21 2.587954e-01 5.840263e-01 5000.0 3.018928e-01 3.379889e-02
</event>
<event>
4 7 1.0 5000.0 7.905138e-03 7.739137e-02
 2 -1 0 0 101   0  0.000000e+00  0.000000e+00  2.051675e+03  2.051675e+03 0.0 0.0 9.0
21 -1 0 0 103 101  0.000000e+00  0.000000e+00 -3.056733e+03  3.056733e+03 0.0 0.0 9.0
 2  1 1 2 103   0  1.327518e+03 -1.910252e+03 -1.448410e+03  2.740302e+03 0.0022 0.0 9.0
22  1 1 2   0   0 -1.327518e+03  1.910252e+03  4.433524e+02  2.368106e+03 0.0 0.0 9.0
#pdf 2 21 3.156423e-01 4.702667e-01 5000.0 2.303597e-01 8.838213e-02
</event>
<event>
4 7 1.0 5000.0 7.905138e-03 7.739137e-02
 2 -1 0 0 101   0  0.000000e+00  0.000000e+00  1.778928e+03  1.778928e+03 0.0 0.0 9.0
21 -1 0 0 103 101  0.000000e+00  0.000000e+00 -3.491513e+03  3.491513e+03 0.0 0.0 9.0
22  1 1 2   0   0  7.026233e+02 -1.864167e+03 -2.439664e+03  3.149723e+03 0.0 0.0 9.0
 2  1 1 2 103   0 -7.026233e+02  1.864167e+03  7.270793e+02  2.120718e+03 0.0022 0.0 9.0
#pdf 2 21 2.736813e-01 5.371558e-01 5000.0 2.824044e-01 5.186283e-02
</event>
<event>
4 7 1.0 5000.0 7.905138e-03 7.739137e-02
21 -1 0 0 103 101  0.000000e+00  0.000000e+00  4.280700e+03  4.280700e+03 0.0 0.0 9.0
 2 -1 0 0 101   0  0.000000e+00  0.000000e+00 -1.460703e+03  1.460703e+03 0.0 0.0 9.0
22  1 1 2   0   0  2.369983e+03 -6.838112e+02  9.388736e+02  2.639299e+03 0.0 0.0 9.0
 2  1 1 2 103   0 -2.369983e+03  6.838112e+02  1.881123e+03  3.102103e+03 0.0022 0.0 9.0
#pdf 21 2 6.585692e-01 2.247235e-01 5000.0 2.380153e-04 9.156908e-02
</event>
<event>
4 7 1.0 5000.0 7.905138e-03 7.739137e-02
 2 -1 0 0 101   0  0.000000e+00  0.000000e+00  2.438559e+03  2.438559e+03 0.0 0.0 9.0
21 -1 0 0 103 101  0.000000e+00  0.000000e+00 -2.273918e+03  2.273918e+03 0.0 0.0 9.0
 2  1 1 2 103   0 -3.257469e+02  2.199539e+03 -6.933936e+02  2.329137e+03 0.0022 0.0 9.0
22  1 1 2   0   0  3.257469e+02 -2.199539e+03  8.580350e+02  2.383340e+03 0.0 0.0 9.0
#pdf 2 21 3.751630e-01 3.498335e-01 5000.0 1.658625e-01 1.918465e-01
</event>
<event>
4 7 1.0 5000.0 7.905138e-03 7.739137e-02
21 -1 0 0 103 101  0.000000e+00  0.000000e+00  1.844314e+03  1.844314e+03 0.0 0.0 9.0
 2 -1 0 0 101   0  0.000000e+00  0.000000e+00 -3.273428e+03  3.273428e+03 0.0 0.0 9.0
22  1 1 2   0   0  8.289017e+02  1.101901e+03 -2.832519e+03  3.150306e+03 0.0 0.0 9.0
 2  1 1 2 103   0 -8.289017e+02 -1.101901e+03  1.403405e+03  1.967437e+03 0.0022 0.0 9.0
#pdf 21 2 2.837407e-01 5.036043e-01 5000.0 4.395441e-02 2.681074e-03
</event>
<event>
4 7 1.0 5000.0 7.905138e-03 7.739137e-02
 2 -1 0 0 101   0  0.000000e+00  0.000000e+00  2.621037e+03  2.621037e+03 0.0 0.0 9.0
21 -1 0 0 103 101  0.000000e+00  0.000000e+00 -2.355483e+03  2.355483e+03 0.0 0.0 9.0
22  1 1 2   0   0 -1.410064e+03  1.349810e+03  1.672351e+03  2.570414e+03 0.0 0.0 9.0
 2  1 1 2 103   0  1.410064e+03 -1.349810e+03 -1.406798e+03  2.406106e+03 0.0022 0.0 9.0
#pdf 2 21 4.032364e-01 3.623820e-01 5000.0 1.396974e-01 1.786932e-01
</event>
<event>
4 7 1.0 5000.0 7.905138e-03 7.739137e-02
 2 -1 0 0 101   0  0.000000e+00  0.000000e+00  2.239848e+03  2.239848e+03 0.0 0.0 9.0
21 -1 0 0 103 101  0.000000e+00  0.000000e+00 -2.777317e+03  2.777317e+03 0.0 0.0 9.0
22  1 1 2   0   0 -2.098878e+03 -1.344729e+03 -3.539852e+02  2.517715e+03 0.0 0.0 9.0
 2  1 1 2 103   0  2.098878e+03  1.344729e+03 -1.834842e+02  2.499450e+03 0.0022 0.0 9.0
#pdf 2 21 3.445919e-01 4.272795e-01 5000.0 1.975036e-01 1.194869e-01
</event>
<event>
4 7 1.0 5000.0 7.905138e-03 7.739137e-02
21 -1 0 0 103 101  0.000000e+00  0.000000e+00  1.739186e+03  1.739186e+03 0.0 0.0 9.0
 2 -1 0 0 101   0  0.000000e+00  0.000000e+00 -3.599095e+03  3.599095e+03 0.0 0.0 9.0
22  1 1 2   0   0 -8.437688e+02 -3.931062e+02 -3.407477e+03  3.532333e+03 0.0 0.0 9.0
 2  1 1 2 103   0  8.437688e+02  3.931062e+02  1.547569e+03  1.805948e+03 0.0022 0.0 9.0
#pdf 21 2 2.675671e-01 5.537069e-01 5000.0 5.362832e-02 1.308391e-03
</event>
<event>
4 7 1.0 5000.0 7.905138e-03 7.739137e-02
 2 -1 0 0 101   0  0.000000e+00  0.000000e+00  1.972602e+03  1.972602e+03 0.0 0.0 9.0
21 -1 0 0 103 101  0.000000e+00  0.000000e+00 -3.055988e+03  3.055988e+03 0.0 0.0 9.0
22  1 1 2   0   0 -1.272089e+03 -1.814932e+03 -1.623535e+03  2.747373e+03 0.0 0.0 9.0
 2  1 1 2 103   0  1.272089e+03  1.814932e+03  5.401498e+02  2.281217e+03 0.0022 0.0 9.0
#pdf 2 21 3.034773e-01 4.701520e-01 5000.0 2.449441e-01 8.845684e-02
</event>
<event>
4 7 1.0 5000.0 7.905138e-03 7.739137e-02
21 -1 0 0 103 101  0.000000e+00  0.000000e+00  2.046756e+03  2.046756e+03 0.0 0.0 9.0
 2 -1 0 0 101   0  0.000000e+00  0.000000e+00 -3.500299e+03  3.500299e+03 0.0 0.0 9.0
22  1 1 2   0   0 -1.214100e+03 -1.932057e+03 -2.176492e+03  3.153410e+03 0.0 0.0 9.0
 2  1 1 2 103   0  1.214100e+03  1.932057e+03  7.229492e+02  2.393645e+03 0.0022 0.0 9.0
#pdf 21 2 3.148856e-01 5.385075e-01 5000.0 3.002386e-02 1.634776e-03
</event>
<event>
4 7 1.0 5000.0 7.905138e-03 7.739137e-02
21 -1 0 0 103 101  0.000000e+00  0.000000e+00  1.883378e+03  1.883378e+03 0.0 0.0 9.0
 2 -1 0 0 101   0  0.000000e+00  0.000000e+00 -3.345762e+03  3.345762e+03 0.0 0.0 9.0
22  1 1 2   0   0 -1.195529e+03 -3.335829e+01  1.567549e+03  1.971703e+03 0.0 0.0 9.0
 2  1 1 2 103   0  1.195529e+03  3.335829e+01 -3.029933e+03  3.257437e+03 0.0022 0.0 9.0
#pdf 21 2 2.897505e-01 5.147327e-01 5000.0 4.086249e-02 2.296409e-03
</event>
<event>
4 7 1.0 5000.0 7.905138e-03 7.739137e-02
 2 -1 0 0 101   0  0.000000e+00  0.000000e+00  2.807810e+03  2.807810e+03 0.0 0.0 9.0
21 -1 0 0 103 101  0.000000e+00  0.000000e+00 -2.247350e+03  2.247350e+03 0.0 0.0 9.0
 2  1 1 2 103   0  1.584276e+03  5.035783e+02 -1.614696e+03  2.317491e+03 0.0022 0.0 9.0
22  1 1 2   0   0 -1.584276e+03 -5.035783e+02  2.175157e+03  2.737669e+03 0.0 0.0 9.0
#pdf 2 21 4.319708e-01 3.457461e-01 5000.0 1.157895e-01 1.962499e-01
</event>
<event>
4 7 1.0 5000.0 7.905138e-03 7.739137e-02
 2 -1 0 0 101   0  0.000000e+00  0.000000e+00  2.264132e+03  2.264132e+03 0.0 0.0 9.0
21 -1 0 0 103 101  0.000000e+00  0.000000e+00 -2.799061e+03  2.799061e+03 0.0 0.0 9.0
 2  1 1 2 103   0  1.894792e+03  4.905627e+02 -1.859586e+03  2.699805e+03 0.0022 0.0 9.0
22  1 1 2   0   0 -1.894792e+03 -4.905627e+02  1.324657e+03  2.363388e+03 0.0 0.0 9.0
#pdf 2 21 3.483280e-01 4.306248e-01 5000.0 1.934618e-01 1.168419e-01
</event>
<event>
4 7 1.0 5000.0 7.905138e-03 7.739137e-02
21 -1 0 0 103 101  0.000000e+00  0.000000e+00  1.364642e+03  1.364642e+03 0.0 0.0 9.0
 2 -1 0 0 101   0  0.000000e+00  0.000000e+00 -4.488620e+03  4.488620e+03 0.0 0.0 9.0
 2  1 1 2 103   0 -2.204469e+03 -8.577210e+02 -2.422856e+03  3.386089e+03 0.0022 0.0 9.0
22  1 1 2   0   0  2.204469e+03  8.577210e+02 -7.011217e+02  2.467173e+03 0.0 0.0 9.0
#pdf 21 2 2.099450e-01 6.905569e-01 5000.0 1.105947e-01 1.305672e-04
</event>
<event>
4 7 1.0 5000.0 7.905138e-03 7.739137e-02
21 -1 0 0 103 101  0.000000e+00  0.000000e+00  3.076166e+03  3.076166e+03 0.0 0.0 9.0
 2 -1 0 0 101   0  0.000000e+00  0.000000e+00 -2.015263e+03  2.015263e+03 0.0 0.0 9.0
 2  1 1 2 103   0  1.982834e+03 -1.417226e+03  9.985199e+00  2.437265e+03 0.0022 0.0 9.0
22  1 1 2   0   0 -1.982834e+03  1.417226e+03  1.050917e+03  2.654164e+03 0.0 0.0 9.0
#pdf 21 2 4.732563e-01 3.100405e-01 5000.0 4.054479e-03 3.187985e-02
</event>
<event>
4 7 1.0 5000.0 7.905138e-03 7.739137e-02
21 -1 0 0 103 101  0.000000e+00  0.000000e+00  3.389420e+03  3.389420e+03 0.0 0.0 9.0
 2 -1 0 0 101   0  0.000000e+00  0.000000e+00 -1.849037e+03  1.849037e+03 0.0 0.0 9.0
 2  1 1 2 103   0  1.989946e+03 -7.244399e+02 -6.266537e+02  2.208482e+03 0.0022 0.0 9.0
22  1 1 2   0   0 -1.989946e+03  7.244399e+02  2.167037e+03  3.029975e+03 0.0 0.0 9.0
#pdf 21 2 5.214492e-01 2.844672e-01 5000.0 2.088422e-03 4.356622e-02
</event>
<event>
4 7 1.0 5000.0 7.905138e-03 7.739137e-02
 2 -1 0 0 101   0  0.000000e+00  0.000000e+00  3.153237e+03  3.153237e+03 0.0 0.0 9.0
21 -1 0 0 103 101  0.000000e+00  0.000000e+00 -2.005607e+03  2.005607e+03 0.0 0.0 9.0
22  1 1 2   0   0  1.030395e+03  1.753426e+03 -9.433699e+02  2.241911e+03 0.0 0.0 9.0
 2  1 1 2 103   0 -1.030395e+03 -1.753426e+03  2.091000e+03  2.916933e+03 0.0022 0.0 9.0
#pdf 2 21 4.851134e-01 3.085549e-01 5000.0 7.907460e-02 2.387977e-01
</event>
<event>
4 7 1.0 5000.0 7.905138e-03 7.739137e-02
 2 -1 0 0 101   0  0.000000e+00  0.000000e+00  3.671619e+03  3.671619e+03 0.0 0.0 9.0
21 -1 0 0 103 101  0.000000e+00  0.000000e+00 -1.635040e+03  1.635040e+03 0.0 0.0 9.0
 2  1 1 2 103   0  1.725886e+03 -1.683957e+03  1.488891e+03  2.833936e+03 0.0022 0.0 9.0
22  1 1 2   0   0 -1.725886e+03  1.683957e+03  5.476886e+02  2.472723e+03 0.0 0.0 9.0
#pdf 2 21 5.648645e-01 2.515445e-01 5000.0 4.052165e-02 3.115273e-01
</event>
<event>
4 7 1.0 5000.0 7.905138e-03 7.739137e-02
 2 -1 0 0 101   0  0.000000e+00  0.000000e+00  2.028515e+03  2.028515e+03 0.0 0.0 9.0
21 -1 0 0 103 101  0.000000e+00  0.000000e+00 -2.882717e+03  2.882717e+03 0.0 0.0 9.0
 2  1 1 2 103   0 -2.276189e+03 -2.000381e+02 -1.230923e+03  2.595423e+03 0.0022 0.0 9.0
22  1 1 2   0   0  2.276189e+03  2.000381e+02  3.767215e+02  2.315808e+03 0.0 0.0 9.0
#pdf 2 21 3.120792e-01 4.434949e-01 5000.0 2.345818e-01 1.070146e-01
</event>
<event>
4 7 1.0 5000.0 7.905138e-03 7.739137e-02
21 -1 0 0 103 101  0.000000e+00  0.000000e+00  1.769244e+03  1.769244e+03 0.0 0.0 9.0
 2 -1 0 0 101   0  0.000000e+00  0.000000e+00 -3.578160e+03  3.578160e+03 0.0 0.0 9.0
22  1 1 2   0   0  1.463624e+03 -1.059537e+03  9.561841e+02  2.044285e+03 0.0 0.0 9.0
 2  1 1 2 103   0 -1.463624e+03  1.059537e+03 -2.765100e+03  3.303118e+03 0.0022 0.0 9.0
#pdf 21 2 2.721914e-01 5.504861e-01 5000.0 5.066200e-02 1.371682e-03
</event>
<event>
4 7 1.0 5000.0 7.905138e-03 7.739137e-02
 2 -1 0 0 101   0  0.000000e+00  0.000000e+00  1.650404e+03  1.650404e+03 0.0 0.0 9.0
21 -1 0 0 103 101  0.000000e+00  0.000000e+00 -3.413359e+03  3.413359e+03 0.0 0.0 9.0
 2  1 1 2 103   0  6.289485e+02  1.235105e+03 -2.936812e+03  3.247449e+03 0.0022 0.0 9.0
22  1 1 2   0   0 -6.289485e+02 -1.235105e+03  1.173857e+03  1.816315e+03 0.0 0.0 9.0
#pdf 2 21 2.539084e-01 5.251322e-01 5000.0 3.083709e-01 5.744642e-02
</event>
<event>
4 7 1.0 5000.0 7.905138e-03 7.739137e-02
21 -1 0 0 103 101  0.000000e+00  0.000000e+00  2.477732e+03  2.477732e+03 0.0 0.0 9.0
 2 -1 0 0 101   0  0.000000e+00  0.000000e+00 -2.316406e+03  2.316406e+03 0.0 0.0 9.0
22  1 1 2   0   0 -2.210709e+02 -1.598437e+03  1.852418e+03  2.456690e+03 0.0 0.0 9.0
 2  1 1 2 103   0  2.210709e+02  1.598437e+03 -1.691092e+03  2.337448e+03 0.0022 0.0 9.0
#pdf 21 2 3.811895e-01 3.563701e-01 5000.0 1.327713e-02 1.803514e-02
</event>
<event>
4 7 1.0 5000.0 7.905138e-03 7.739137e-02
21 -1 0 0 103 101  0.000000e+00  0.000000e+00  1.770407e+03  1.770407e+03 0.0 0.0 9.0
 2 -1 0 0 101   0  0.000000e+00  0.000000e+00 -3.557787e+03  3.557787e+03 0.0 0.0 9.0
 2  1 1 2 103   0 -7.057691e+02  4.383713e+02  1.620193e+03  1.820798e+03 0.0022 0.0 9.0
22  1 1 2   0   0  7.057691e+02 -4.383713e+02 -3.407573e+03  3.507397e+03 0.0 0.0 9.0
#pdf 21 2 2.723704e-01 5.473519e-01 5000.0 5.055070e-02 1.437494e-03
</event>
<event>
4 7 1.0 5000.0 7.905138e-03 7.739137e-02
21 -1 0 0 103 101  0.000000e+00  0.000000e+00  3.072837e+03  3.072837e+03 0.0 0.0 9.0
 2 -1 0 0 101   0  0.000000e+00  0.000000e+00 -2.050777e+03  2.050777e+03 0.0 0.0 9.0
22  1 1 2   0   0 -1.651081e+03 -7.968227e+01 -1.416975e+03  2.177208e+03 0.0 0.0 9.0
 2  1 1 2 103   0  1.651081e+03  7.968227e+01  2.439035e+03  2.946406e+03 0.0022 0.0 9.0
#pdf 21 2 4.727442e-01 3.155042e-01 5000.0 4.082377e-03 2.979509e-02
</event>
<event>
4 7 1.0 5000.0 7.905138e-03 7.739137e-02
 2 -1 0 0 101   0  0.000000e+00  0.000000e+00  2.061134e+03  2.061134e+03 0.0 0.0 9.0
21 -1 0 0 103 101  0.000000e+00  0.000000e+00 -3.080592e+03  3.080592e+03 0.0 0.0 9.0
22  1 1 2   0   0 -1.210440e+03 -1.928425e+03  5.917330e+02  2.352474e+03 0.0 0.0 9.0
 2  1 1 2 103   0  1.210440e+03  1.928425e+03 -1.611191e+03  2.789251e+03 0.0022 0.0 9.0
#pdf 2 21 3.170975e-01 4.739372e-01 5000.0 2.286468e-01 8.601332e-02
</event>
<event>
4 7 1.0 5000.0 7.905138e-03 7.739137e-02
21 -1 0 0 103 101  0.000000e+00  0.000000e+00  3.759395e+03  3.759395e+03 0.0 0.0 9.0
 2 -1 0 0 101   0  0.000000e+00  0.000000e+00 -1.630674e+03  1.630674e+03 0.0 0.0 9.0
 2  1 1 2 103   0 -2.231552e+03  7.154212e+02  1.944606e+02  2.351482e+03 0.0022 0.0 9.0
22  1 1 2   0   0  2.231552e+03 -7.154212e+02  1.934260e+03  3.038588e+03 0.0 0.0 9.0
#pdf 21 2 5.783685e-01 2.508730e-01 5000.0 9.011360e-04 6.602224e-02
</event>
<event>
4 7 1.0 5000.0 7.905138e-03 7.739137e-02
 2 -1 0 0 101   0  0.000000e+00  0.000000e+00  2.946214e+03  2.946214e+03 0.0 0.0 9.0
21 -1 0 0 103 101  0.000000e+00  0.000000e+00 -2.138537e+03  2.138537e+03 0.0 0.0 9.0
 2  1 1 2 103   0  2.212667e+03 -1.303631e+02  1.596992e+03  2.731900e+03 0.0022 0.0 9.0
22  1 1 2   0   0 -2.212667e+03  1.303631e+02 -7.893147e+02  2.352851e+03 0.0 0.0 9.0
#pdf 2 21 4.532637e-01 3.290056e-01 5000.0 9.993605e-02 2.148559e-01
</event>
<event>
4 7 1.0 5000.0 7.905138e-03 7.739137e-02
 2 -1 0 0 101   0  0.000000e+00  0.000000e+00  4.582237e+03  4.582237e+03 0.0 0.0 9.0
21 -1 0 0 103 101  0.000000e+00  0.000000e+00 -1.383877e+03  1.383877e+03 0.0 0.0 9.0
22  1 1 2   0   0 -1.144791e+03 -2.236196e+03  1.804814e+03  3.093295e+03 0.0 0.0 9.0
 2  1 1 2 103   0  1.144791e+03  2.236196e+03  1.393546e+03  2.872819e+03 0.0022 0.0 9.0
#pdf 2 21 7.049595e-01 2.129041e-01 5000.0 8.360905e-03 3.641783e-01
</event>
<event>
4 7 1.0 5000.0 7.905138e-03 7.739137e-02
21 -1 0 0 103 101  0.000000e+00  0.000000e+00  2.763141e+03  2.763141e+03 0.0 0.0 9.0
 2 -1 0 0 101   0  0.000000e+00  0.000000e+00 -2.385232e+03  2.385232e+03 0.0 0.0 9.0
 2  1 1 2 103   0 -7.618583e+02  1.087514e+03  2.392082e+03  2.735904e+03 0.0022 0.0 9.0
22  1 1 2   0   0  7.618583e+02 -1.087514e+03 -2.014173e+03  2.412469e+03 0.0 0.0 9.0
#pdf 21 2 4.250986e-01 3.669588e-01 5000.0 7.616559e-03 1.582875e-02
</event>
<event>
4 7 1.0 5000.0 7.905138e-03 7.739137e-02
21 -1 0 0 103 101  0.000000e+00  0.000000e+00  3.692078e+03  3.692078e+03 0.0 0.0 9.0
 2 -1 0 0 101   0  0.000000e+00  0.000000e+00 -1.633110e+03  1.633110e+03 0.0 0.0 9.0
 2  1 1 2 103   0  1.010558e+03  2.219755e+03  1.338147e+03  2.781938e+03 0.0022 0.0 9.0
22  1 1 2   0   0 -1.010558e+03 -2.219755e+03  7.208212e+02  2.543250e+03 0.0 0.0 9.0
#pdf 21 2 5.680121e-01 2.512477e-01 5000.0 1.056682e-03 6.571715e-02
</event>
<event>
4 7 1.0 5000.0 7.905138e-03 7.739137e-02
21 -1 0 0 103 101  0.000000e+00  0.000000e+00  2.373839e+03  2.373839e+03 0.0 0.0 9.0
 2 -1 0 0 101   0  0.000000e+00  0.000000e+00 -2.611210e+03  2.611210e+03 0.0 0.0 9.0
 2  1 1 2 103   0  1.124723e+02 -9.960902e+02 -2.400252e+03  2.601165e+03 0.0022 0.0 9.0
22  1 1 2   0   0 -1.124723e+02  9.960902e+02  2.162882e+03  2.383884e+03 0.0 0.0 9.0
#pdf 21 2 3.652060e-01 4.017246e-01 5000.0 1.617926e-02 1.025475e-02
</event>
<event>
4 7 1.0 5000.0 7.905138e-03 7.739137e-02
21 -1 0 0 103 101  0.000000e+00  0.000000e+00  3.215196e+03  3.215196e+03 0.0 0.0 9.0
 2 -1 0 0 101   0  0.000000e+00  0.000000e+00 -1.814473e+03  1.814473e+03 0.0 0.0 9.0
 2  1 1 2 103   0 -1.224245e+02  9.765982e+02 -1.596203e+03  1.875259e+03 0.0022 0.0 9.0
22  1 1 2   0   0  1.224245e+02 -9.765982e+02  2.996926e+03  3.154409e+03 0.0 0.0 9.0
#pdf 21 2 4.946455e-01 2.791496e-01 5000.0 3.034076e-03 4.650937e-02
</event>
<event>
4 7 1.0 5000.0 7.905138e-03 7.739137e-02
 2 -1 0 0 101   0  0.000000e+00  0.000000e+00  1.907999e+03  1.907999e+03 0.0 0.0 9.0
21 -1 0 0 103 101  0.000000e+00  0.000000e+00 -3.021583e+03  3.021583e+03 0.0 0.0 9.0
22  1 1 2   0   0 -1.616490e+03 -1.568278e+03  2.975432e+02  2.271798e+03 0.0 0.0 9.0
 2  1 1 2 103   0  1.616490e+03  1.568278e+03 -1.411127e+03  2.657784e+03 0.0022 0.0 9.0
#pdf 2 21 2.935383e-01 4.648589e-01 5000.0 2.571708e-01 9.194818e-02
</event>
<event>
4 7 1.0 5000.0 7.905138e-03 7.739137e-02
 2 -1 0 0 101   0  0.000000e+00  0.000000e+00  2.879846e+03  2.879846e+03 0.0 0.0 9.0
21 -1 0 0 103 101  0.000000e+00  0.000000e+00 -1.814171e+03  1.814171e+03 0.0 0.0 9.0
22  1 1 2   0   0  1.002369e+03  9.706156e+02 -1.326145e+03  1.924967e+03 0.0 0.0 9.0
 2  1 1 2 103   0 -1.002369e+03 -9.706156e+02  2.391820e+03  2.769050e+03 0.0022 0.0 9.0
#pdf 2 21 4.430532e-01 2.791033e-01 5000.0 1.073441e-01 2.754203e-01
</event>
<event>
4 7 1.0 5000.0 7.905138e-03 7.739137e-02
21 -1 0 0 103 101  0.000000e+00  0.000000e+00  2.639400e+03  2.639400e+03 0.0 0.0 9.0
 2 -1 0 0 101   0  0.000000e+00  0.000000e+00 -2.167409e+03  2.167409e+03 0.0 0.0 9.0
 2  1 1 2 103   0  3.502907e+02 -2.330910e+03 -1.719494e+02  2.363347e+03 0.0022 0.0 9.0
22  1 1 2   0   0 -3.502907e+02  2.330910e+03  6.439403e+02  2.443461e+03 0.0 0.0 9.0
#pdf 21 2 4.060615e-01 3.334475e-01 5000.0 9.708111e-03 2.391366e-02
</event>
<event>
4 7 1.0 5000.0 7.905138e-03 7.739137e-02
 2 -1 0 0 101   0  0.000000e+00  0.000000e+00  1.553687e+03  1.553687e+03 0.0 0.0 9.0
21 -1 0 0 103 101  0.000000e+00  0.000000e+00 -3.928612e+03  3.928612e+03 0.0 0.0 9.0
22  1 1 2   0   0 -1.784608e+03 -4.945605e+02  6.269912e+02  1.955130e+03 0.0 0.0 9.0
 2  1 1 2 103   0  1.784608e+03  4.945605e+02 -3.001916e+03  3.527169e+03 0.0022 0.0 9.0
#pdf 2 21 2.390288e-01 6.044019e-01 5000.0 3.283842e-01 2.760253e-02
</event>
<event>
4 7 1.0 5000.0 7.905138e-03 7.739137e-02
21 -1 0 0 103 101  0.000000e+00  0.000000e+00  1.785836e+03  1.785836e+03 0.0 0.0 9.0
 2 -1 0 0 101   0  0.000000e+00  0.000000e+00 -3.621551e+03  3.621551e+03 0.0 0.0 9.0
22  1 1 2   0   0 -2.819545e+02  2.411903e+03 -1.721016e+03  2.976352e+03 0.0 0.0 9.0
 2  1 1 2 103   0  2.819545e+02 -2.411903e+03 -1.146991e+02  2.431035e+03 0.0022 0.0 9.0
#pdf 21 2 2.747440e-01 5.571616e-01 5000.0 4.909793e-02 1.244485e-03
</event>
<event>
4 7 1.0 5000.0 7.905138e-03 7.739137e-02
21 -1 0 0 103 101  0.000000e+00  0.000000e+00  2.681485e+03  2.681485e+03 0.0 0.0 9.0
 2 -1 0 0 101   0  0.000000e+00  0.000000e+00 -2.455545e+03  2.455545e+03 0.0 0.0 9.0
 2  1 1 2 103   0  2.295617e+03  1.483971e+02 -1.025070e+03  2.518461e+03 0.0022 0.0 9.0
22  1 1 2   0   0 -2.295617e+03 -1.483971e+02  1.251011e+03  2.618569e+03 0.0 0.0 9.0
#pdf 21 2 4.125362e-01 3.777761e-01 5000.0 8.940495e-03 1.385313e-02
</event>
<event>
4 7 1.0 5000.0 7.905138e-03 7.739137e-02
 2 -1 0 0 101   0  0.000000e+00  0.000000e+00  2.239320e+03  2.239320e+03 0.0 0.0 9.0
21 -1 0 0 103 101  0.000000e+00  0.000000e+00 -2.807055e+03  2.807055e+03 0.0 0.0 9.0
22  1 1 2   0   0  1.083832e+03  5.907744e+02 -2.480054e+03  2.770266e+03 0.0 0.0 9.0
 2  1 1 2 103   0 -1.083832e+03 -5.907744e+02  1.912319e+03  2.276108e+03 0.0022 0.0 9.0
#pdf 2 21 3.445107e-01 4.318546e-01 5000.0 1.975920e-01 1.158801e-01
</event>
<event>
4 7 1.0 5000.0 7.905138e-03 7.739137e-02
21 -1 0 0 103 101  0.000000e+00  0.000000e+00  2.629572e+03  2.629572e+03 0.0 0.0 9.0
 2 -1 0 0 101   0  0.000000e+00  0.000000e+00 -2.002234e+03  2.002234e+03 0.0 0.0 9.0
22  1 1 2   0   0  2.109641e+03 -9.005268e+02  2.540977e+02  2.307834e+03 0.0 0.0 9.0
 2  1 1 2 103   0 -2.109641e+03  9.005268e+02  3.732397e+02  2.323971e+03 0.0022 0.0 9.0
#pdf 21 2 4.045495e-01 3.080360e-01 5000.0 9.895687e-03 3.267720e-02
</event>
<event>
4 7 1.0 5000.0 7.905138e-03 7.739137e-02
21 -1 0 0 103 101  0.000000e+00  0.000000e+00  3.349337e+03  3.349337e+03 0.0 0.0 9.0
 2 -1 0 0 101   0  0.000000e+00  0.000000e+00 -1.723941e+03  1.723941e+03 0.0 0.0 9.0
22  1 1 2   0   0  1.627553e+02  1.670654e+03  2.627820e+03  3.118175e+03 0.0 0.0 9.0
 2  1 1 2 103   0 -1.627553e+02 -1.670654e+03 -1.002424e+03  1.955103e+03 0.0022 0.0 9.0
#pdf 21 2 5.152826e-01 2.652217e-01 5000.0 2.278717e-03 5.520375e-02
</event>
<event>
4 7 1.0 5000.0 7.905138e-03 7.739137e-02
21 -1 0 0 103 101  0.000000e+00  0.000000e+00  2.265696e+03  2.265696e+03 0.0 0.0 9.0
 2 -1 0 0 101   0  0.000000e+00  0.000000e+00 -2.139590e+03  2.139590e+03 0.0 0.0 9.0
 2  1 1 2 103   0  7.889788e+02  9.172604e+02  1.903320e+03  2.255323e+03 0.0022 0.0 9.0
22  1 1 2   0   0 -7.889788e+02 -9.172604e+02 -1.777213e+03  2.149963e+03 0.0 0.0 9.0
#pdf 21 2 3.485687e-01 3.291676e-01 5000.0 1.986653e-02 2.520174e-02
</event>
<event>
4 7 1.0 5000.0 7.905138e-03 7.739137e-02
 2 -1 0 0 101   0  0.000000e+00  0.000000e+00  5.024466e+03  5.024466e+03 0.0 0.0 9.0
21 -1 0 0 103 101  0.000000e+00  0.000000e+00 -1.267094e+03  1.267094e+03 0.0 0.0 9.0
22  1 1 2   0   0  9.143859e+02  1.029787e+03  4.514582e+03  4.719959e+03 0.0 0.0 9.0
 2  1 1 2 103   0 -9.143859e+02 -1.029787e+03 -7.572095e+02  1.571601e+03 0.0022 0.0 9.0
#pdf 2 21 7.729948e-01 1.949375e-01 5000.0 2.855835e-03 3.890381e-01
</event>
<event>
4 7 1.0 5000.0 7.905138e-03 7.739137e-02
 2 -1 0 0 101   0  0.000000e+00  0.000000e+00  2.721681e+03  2.721681e+03 0.0 0.0 9.0
21 -1 0 0 103 101  0.000000e+00  0.000000e+00 -2.073609e+03  2.073609e+03 0.0 0.0 9.0
22  1 1 2   0   0 -1.789444e+03 -5.435165e+02 -1.154514e+03  2.197822e+03 0.0 0.0 9.0
 2  1 1 2 103   0  1.789444e+03  5.435165e+02  1.802587e+03  2.597468e+03 0.0022 0.0 9.0
#pdf 2 21 4.187202e-01 3.190167e-01 5000.0 1.264474e-01 2.263971e-01
</event>
<event>
4 7 1.0 5000.0 7.905138e-03 7.739137e-02
 2 -1 0 0 101   0  0.000000e+00  0.000000e+00  2.517531e+03  2.517531e+03 0.0 0.0 9.0
21 -1 0 0 103 101  0.000000e+00  0.000000e+00 -2.460666e+03  2.460666e+03 0.0 0.0 9.0
22  1 1 2   0   0 -5.453450e+02 -2.650823e+02 -2.385671e+03  2.461523e+03 0.0 0.0 9.0
 2  1 1 2 103   0  5.453450e+02  2.650823e+02  2.442535e+03  2.516674e+03 0.0022 0.0 9.0
#pdf 2 21 3.873124e-01 3.785641e-01 5000.0 1.542049e-01 1.625496e-01
</event>
<event>
4 7 1.0 5000.0 7.905138e-03 7.739137e-02
 2 -1 0 0 101   0  0.000000e+00  0.000000e+00  1.577349e+03  1.577349e+03 0.0 0.0 9.0
21 -1 0 0 103 101  0.000000e+00  0.000000e+00 -3.870445e+03  3.870445e+03 0.0 0.0 9.0
22  1 1 2   0   0  1.424471e+03  3.126805e+02  1.052259e+03  1.798370e+03 0.0 0.0 9.0
 2  1 1 2 103   0 -1.424471e+03 -3.126805e+02 -3.345355e+03  3.649423e+03 0.0022 0.0 9.0
#pdf 2 21 2.426690e-01 5.954530e-01 5000.0 3.234674e-01 3.020871e-02
</event>
<event>
4 7 1.0 5000.0 7.905138e-03 7.739137e-02
21 -1 0 0 103 101  0.000000e+00  0.000000e+00  3.707311e+03  3.707311e+03 0.0 0.0 9.0
 2 -1 0 0 101   0  0.000000e+00  0.000000e+00 -1.670780e+03  1.670780e+03 0.0 0.0 9.0
22  1 1 2   0   0 -4.870910e+02 -1.662053e+03  2.949367e+03  3.420299e+03 0.0 0.0 9.0
 2  1 1 2 103   0  4.870910e+02  1.662053e+03 -9.128366e+02  1.957792e+03 0.0022 0.0 9.0
#pdf 21 2 5.703555e-01 2.570431e-01 5000.0 1.019281e-03 6.113265e-02
</event>
<event>
4 7 1.0 5000.0 7.905138e-03 7.739137e-02
21 -1 0 0 103 101  0.000000e+00  0.000000e+00  1.853838e+03  1.853838e+03 0.0 0.0 9.0
 2 -1 0 0 101   0  0.000000e+00  0.000000e+00 -3.111503e+03  3.111503e+03 0.0 0.0 9.0
 2  1 1 2 103   0  2.348269e+03  2.857774e+02 -1.998915e+02  2.374024e+03 0.0022 0.0 9.0
22  1 1 2   0   0 -2.348269e+03 -2.857774e+02 -1.057774e+03  2.591317e+03 0.0 0.0 9.0
#pdf 21 2 2.852058e-01 4.786928e-01 5000.0 4.317607e-02 3.768443e-03
</event>
<event>
4 7 1.0 5000.0 7.905138e-03 7.739137e-02
 2 -1 0 0 101   0  0.000000e+00  0.000000e+00  1.917720e+03  1.917720e+03 0.0 0.0 9.0
21 -1 0 0 103 101  0.000000e+00  0.000000e+00 -3.290098e+03  3.290098e+03 0.0 0.0 9.0
 2  1 1 2 103   0  1.613279e+03 -1.602360e+03  4.202833e+02  2.312329e+03 0.0022 0.0 9.0
22  1 1 2   0   0 -1.613279e+03  1.602360e+03 -1.792661e+03  2.895490e+03 0.0 0.0 9.0
#pdf 2 21 2.950339e-01 5.061689e-01 5000.0 2.553120e-01 6.708502e-02
</event>
<event>
4 7 1.0 5000.0 7.905138e-03 7.739137e-02
21 -1 0 0 103 101  0.000000e+00  0.000000e+00  3.616995e+03  3.616995e+03 0.0 0.0 9.0
 2 -1 0 0 101   0  0.000000e+00  0.000000e+00 -1.759783e+03  1.759783e+03 0.0 0.0 9.0
22  1 1 2   0   0 -6.128236e+02 -6.814110e+01  3.535469e+03  3.588835e+03 0.0 0.0 9.0
 2  1 1 2 103   0  6.128236e+02  6.814110e+01 -1.678257e+03  1.787944e+03 0.0022 0.0 9.0
#pdf 21 2 5.564608e-01 2.707359e-01 5000.0 1.257312e-03 5.157655e-02
</event>
<event>
4 7 1.0 5000.0 7.905138e-03 7.739137e-02
21 -1 0 0 103 101  0.000000e+00  0.000000e+00  1.930443e+03  1.930443e+03 0.0 0.0 9.0
 2 -1 0 0 101   0  0.000000e+00  0.000000e+00 -3.276057e+03  3.276057e+03 0.0 0.0 9.0
 2  1 1 2 103   0  2.508402e+03 -1.786527e+02 -6.566055e+02  2.599063e+03 0.0022 0.0 9.0
22  1 1 2   0   0 -2.508402e+03  1.786527e+02 -6.890082e+02  2.607437e+03 0.0 0.0 9.0
#pdf 21 2 2.969913e-01 5.040088e-01 5000.0 3.740079e-02 2.666097e-03
</event>
<event>
4 7 1.0 5000.0 7.905138e-03 7.739137e-02
 2 -1 0 0 101   0  0.000000e+00  0.000000e+00  2.422256e+03  2.422256e+03 0.0 0.0 9.0
21 -1 0 0 103 101  0.000000e+00  0.000000e+00 -2.542688e+03  2.542688e+03 0.0 0.0 9.0
 2  1 1 2 103   0 -4.592819e+02 -4.635676e+02  2.334901e+03  2.424375e+03 0.0022 0.0 9.0
22  1 1 2   0   0  4.592819e+02  4.635676e+02 -2.455332e+03  2.540569e+03 0.0 0.0 9.0
#pdf 2 21 3.726548e-01 3.911828e-01 5000.0 1.683282e-01 1.506009e-01
</event>
<event>
4 7 1.0 5000.0 7.905138e-03 7.739137e-02
 2 -1 0 0 101   0  0.000000e+00  0.000000e+00  1.666044e+03  1.666044e+03 0.0 0.0 9.0
21 -1 0 0 103 101  0.000000e+00  0.000000e+00 -3.569467e+03  3.569467e+03 0.0 0.0 9.0
 2  1 1 2 103   0 -1.752949e+03  1.090325e+03 -2.345241e+03  3.124387e+03 0.0022 0.0 9.0
22  1 1 2   0   0  1.752949e+03 -1.090325e+03  4.418191e+02  2.111124e+03 0.0 0.0 9.0
#pdf 2 21 2.563145e-01 5.491487e-01 5000.0 3.051744e-01 4.669868e-02
</event>
<event>
4 7 1.0 5000.0 7.905138e-03 7.739137e-02
 2 -1 0 0 101   0  0.000000e+00  0.000000e+00  1.586460e+03  1.586460e+03 0.0 0.0 9.0
21 -1 0 0 103 101  0.000000e+00  0.000000e+00 -3.930088e+03  3.930088e+03 0.0 0.0 9.0
22  1 1 2   0   0  3.482508e+02  1.801937e+03 -3.042111e+03  3.552843e+03 0.0 0.0 9.0
 2  1 1 2 103   0 -3.482508e+02 -1.801937e+03  6.984832e+02  1.963704e+03 0.0022 0.0 9.0
#pdf 2 21 2.440708e-01 6.046289e-01 5000.0 3.215899e-01 2.753862e-02
</event>
<event>
4 7 1.0 5000.0 7.905138e-03 7.739137e-02
 2 -1 0 0 101   0  0.000000e+00  0.000000e+00  1.143561e+03  1.143561e+03 0.0 0.0 9.0
21 -1 0 0 103 101  0.000000e+00  0.000000e+00 -4.030990e+03  4.030990e+03 0.0 0.0 9.0
22  1 1 2   0   0 -8.437608e+02 -1.343197e+03  2.999023e+02  1.614327e+03 0.0 0.0 9.0
 2  1 1 2 103   0  8.437608e+02  1.343197e+03 -3.187331e+03  3.560223e+03 0.0022 0.0 9.0
#pdf 2 21 1.759325e-01 6.201523e-01 5000.0 4.150230e-01 2.341591e-02
</event>
<event>
4 7 1.0 5000.0 7.905138e-03 7.739137e-02
21 -1 0 0 103 101  0.000000e+00  0.000000e+00  4.652877e+03  4.652877e+03 0.0 0.0 9.0
 2 -1 0 0 101   0  0.000000e+00  0.000000e+00 -1.359207e+03  1.359207e+03 0.0 0.0 9.0
22  1 1 2   0   0 -4.998711e+02 -1.425303e+03  4.050290e+03  4.322755e+03 0.0 0.0 9.0
 2  1 1 2 103   0  4.998711e+02  1.425303e+03 -7.566203e+02  1.689329e+03 0.0022 0.0 9.0
#pdf 21 2 7.158272e-01 2.091088e-01 5000.0 7.831276e-05 1.117708e-01
</event>
<event>
4 7 1.0 5000.0 7.905138e-03 7.739137e-02
 2 -1 0 0 101   0  0.000000e+00  0.000000e+00  2.784663e+03  2.784663e+03 0.0 0.0 9.0
21 -1 0 0 103 101  0.000000e+00  0.000000e+00 -2.214281e+03  2.214281e+03 0.0 0.0 9.0
22  1 1 2   0   0  7.117841e+02 -1.919938e+03 -1.128760e+03  2.338140e+03 0.0 0.0 9.0
 2  1 1 2 103   0 -7.117841e+02  1.919938e+03  1.699142e+03  2.660805e+03 0.0022 0.0 9.0
#pdf 2 21 4.284098e-01 3.406586e-01 5000.0 1.185884e-01 2.018085e-01
</event>
<event>
4 7 1.0 5000.0 7.905138e-03 7.739137e-02
 2 -1 0 0 101   0  0.000000e+00  0.000000e+00  1.740635e+03  1.740635e+03 0.0 0.0 9.0
21 -1 0 0 103 101  0.000000e+00  0.000000e+00 -3.571665e+03  3.571665e+03 0.0 0.0 9.0
22  1 1 2   0   0 -2.301630e+03  6.129399e+02 -1.299708e+02  2.385391e+03 0.0 0.0 9.0
 2  1 1 2 103   0  2.301630e+03 -6.129399e+02 -1.701059e+03  2.926909e+03 0.0022 0.0 9.0
#pdf 2 21 2.677900e-01 5.494869e-01 5000.0 2.900727e-01 4.655778e-02
</event>
<event>
4 7 1.0 5000.0 7.905138e-03 7.739137e-02
 2 -1 0 0 101   0  0.000000e+00  0.000000e+00  2.730070e+03  2.730070e+03 0.0 0.0 9.0
21 -1 0 0 103 101  0.000000e+00  0.000000e+00 -2.319440e+03  2.319440e+03 0.0 0.0 9.0
22  1 1 2   0   0 -5.410817e+02 -1.053023e+03 -2.022561e+03  2.343582e+03 0.0 0.0 9.0
 2  1 1 2 103   0  5.410817e+02  1.053023e+03  2.433191e+03  2.705928e+03 0.0022 0.0 9.0
#pdf 2 21 4.200108e-01 3.568369e-01 5000.0 1.253808e-01 1.844386e-01
</event>
<event>
4 7 1.0 5000.0 7.905138e-03 7.739137e-02
21 -1 0 0 103 101  0.000000e+00  0.000000e+00  1.600306e+03  1.600306e+03 0.0 0.0 9.0
 2 -1 0 0 101   0  0.000000e+00  0.000000e+00 -3.894727e+03  3.894727e+03 0.0 0.0 9.0
22  1 1 2   0   0 -2.417797e+03  1.845971e+02 -4.934066e+02  2.474524e+03 0.0 0.0 9.0
 2  1 1 2 103   0  2.417797e+03 -1.845971e+02 -1.801014e+03  3.020508e+03 0.0022 0.0 9.0
#pdf 21 2 2.462009e-01 5.991887e-01 5000.0 6.989512e-02 6.502042e-04
</event>
<event>
4 7 1.0 5000.0 7.905138e-03 7.739137e-02
 2 -1 0 0 101   0  0.000000e+00  0.000000e+00  2.226347e+03  2.226347e+03 0.0 0.0 9.0
21 -1 0 0 103 101  0.000000e+00  0.000000e+00 -2.732716e+03  2.732716e+03 0.0 0.0 9.0
 2  1 1 2 103   0 -5.440271e+02 -1.693266e+03  1.464847e+03  2.304103e+03 0.0022 0.0 9.0
22  1 1 2   0   0  5.440271e+02  1.693266e+03 -1.971216e+03  2.654959e+03 0.0 0.0 9.0
#pdf 2 21 3.425149e-01 4.204178e-01 5000.0 1.997707e-01 1.250456e-01
</event>
<event>
4 7 1.0 5000.0 7.905138e-03 7.739137e-02
21 -1 0 0 103 101  0.000000e+00  0.000000e+00  4.327005e+03  4.327005e+03 0.0 0.0 9.0
 2 -1 0 0 101   0  0.000000e+00  0.000000e+00 -1.461266e+03  1.461266e+03 0.0 0.0 9.0
22  1 1 2   0   0  1.044765e+03 -1.606917e+03  3.306211e+03  3.821616e+03 0.0 0.0 9.0
 2  1 1 2 103   0 -1.044765e+03  1.606917e+03 -4.404728e+02  1.966655e+03 0.0022 0.0 9.0
#pdf 21 2 6.656931e-01 2.248102e-01 5000.0 2.085061e-04 9.146768e-02
</event>
<event>
4 7 1.0 5000.0 7.905138e-03 7.739137e-02
 2 -1 0 0 101   0  0.000000e+00  0.000000e+00  1.784823e+03  1.784823e+03 0.0 0.0 9.0
21 -1 0 0 103 101  0.000000e+00  0.000000e+00 -3.640457e+03  3.640457e+03 0.0 0.0 9.0
 2  1 1 2 103   0  6.684600e+02 -8.721044e+02  1.519844e+03  1.875455e+03 0.0022 0.0 9.0
22  1 1 2   0   0 -6.684600e+02  8.721044e+02 -3.375478e+03  3.549825e+03 0.0 0.0 9.0
#pdf 2 21 2.745882e-01 5.600703e-01 5000.0 2.812308e-01 4.234821e-02
</event>
<event>
4 7 1.0 5000.0 7.905138e-03 7.739137e-02
21 -1 0 0 103 101  0.000000e+00  0.000000e+00  2.092174e+03  2.092174e+03 0.0 0.0 9.0
 2 -1 0 0 101   0  0.000000e+00  0.000000e+00 -2.932596e+03  2.932596e+03 0.0 0.0 9.0
 2  1 1 2 103   0  2.203543e+03 -1.124585e+03 -5.452935e+02  2.533306e+03 0.0022 0.0 9.0
22  1 1 2   0   0 -2.203543e+03  1.124585e+03 -2.951294e+02  2.491464e+03 0.0 0.0 9.0
#pdf 21 2 3.218729e-01 4.511687e-01 5000.0 2.755370e-02 5.434572e-03
</event>
<event>
4 7 1.0 5000.0 7.905138e-03 7.739137e-02
21 -1 0 0 103 101  0.000000e+00  0.000000e+00  1.642298e+03  1.642298e+03 0.0 0.0 9.0
 2 -1 0 0 101   0  0.000000e+00  0.000000e+00 -3.258120e+03  3.258120e+03 0.0 0.0 9.0
22  1 1 2   0   0  5.311991e+02  2.239216e+03 -5.605296e+02  2.368639e+03 0.0 0.0 9.0
 2  1 1 2 103   0 -5.311991e+02 -2.239216e+03 -1.055293e+03  2.531778e+03 0.0022 0.0 9.0
#pdf 21 2 2.526612e-01 5.012492e-01 5000.0 6.457486e-02 2.769979e-03
</event>
<event>
4 7 1.0 5000.0 7.905138e-03 7.739137e-02
21 -1 0 0 103 101  0.000000e+00  0.000000e+00  1.488992e+03  1.488992e+03 0.0 0.0 9.0
 2 -1 0 0 101   0  0.000000e+00  0.000000e+00 -4.091376e+03  4.091376e+03 0.0 0.0 9.0
 2  1 1 2 103   0  9.038914e+01  1.161414e+03 -3.761054e+03  3.937332e+03 0.0022 0.0 9.0
22  1 1 2   0   0 -9.038914e+01 -1.161414e+03  1.158670e+03  1.643037e+03 0.0 0.0 9.0
#pdf 21 2 2.290757e-01 6.294425e-01 5000.0 8.664081e-02 3.953370e-04
</event>
<event>
4 7 1.0 5000.0 7.905138e-03 7.739137e-02
21 -1 0 0 103 101  0.000000e+00  0.000000e+00  2.009461e+03  2.009461e+03 0.0 0.0 9.0
 2 -1 0 0 101   0  0.000000e+00  0.000000e+00 -3.142018e+03  3.142018e+03 0.0 0.0 9.0
 2  1 1 2 103   0 -2.496954e+03  2.673393e+02 -4.774447e+02  2.556209e+03 0.0022 0.0 9.0
22  1 1 2   0   0  2.496954e+03 -2.673393e+02 -6.551126e+02  2.595269e+03 0.0 0.0 9.0
#pdf 21 2 3.091478e-01 4.833874e-01 5000.0 3.223303e-02 3.535984e-03
</event>
<event>
4 7 1.0 5000.0 7.905138e-03 7.739137e-02
21 -1 0 0 103 101  0.000000e+00  0.000000e+00  2.961143e+03  2.961143e+03 0.0 0.0 9.0
 2 -1 0 0 101   0  0.000000e+00  0.000000e+00 -2.136451e+03  2.136451e+03 0.0 0.0 9.0
22  1 1 2   0   0  1.292442e+03 -6.278340e+02  2.504305e+03  2.887235e+03 0.0 0.0 9.0
 2  1 1 2 103   0 -1.292442e+03  6.278340e+02 -1.679613e+03  2.210358e+03 0.0022 0.0 9.0
#pdf 21 2 4.555604e-01 3.286847e-01 5000.0 5.129926e-03 2.535111e-02
</event>
<event>
4 7 1.0 5000.0 7.905138e-03 7.739137e-02
21 -1 0 0 103 101  0.000000e+00  0.000000e+00  3.492039e+03  3.492039e+03 0.0 0.0 9.0
 2 -1 0 0 101   0  0.000000e+00  0.000000e+00 -1.983177e+03  1.983177e+03 0.0 0.0 9.0
22  1 1 2   0   0 -2.548866e+03  5.815066e+02  4.415419e+02  2.651382e+03 0.0 0.0 9.0
 2  1 1 2 103   0  2.548866e+03 -5.815066e+02  1.067320e+03  2.823834e+03 0.0022 0.0 9.0
#pdf 21 2 5.372367e-01 3.051042e-01 5000.0 1.665349e-03 3.386922e-02
</event>
<event>
4 7 1.0 5000.0 7.905138e-03 7.739137e-02
21 -1 0 0 103 101  0.000000e+00  0.000000e+00  2.374510e+03  2.374510e+03 0.0 0.0 9.0
 2 -1 0 0 101   0  0.000000e+00  0.000000e+00 -2.648709e+03  2.648709e+03 0.0 0.0 9.0
 2  1 1 2 103   0 -1.332121e+03 -3.908573e+02 -2.228775e+03  2.625786e+03 0.0022 0.0 9.0
22  1 1 2   0   0  1.332121e+03  3.908573e+02  1.954576e+03  2.397433e+03 0.0 0.0 9.0
#pdf 21 2 3.653092e-01 4.074937e-01 5000.0 1.615852e-02 9.533247e-03
</event>
<event>
4 7 1.0 5000.0 7.905138e-03 7.739137e-02
21 -1 0 0 103 101  0.000000e+00  0.000000e+00  1.404440e+03  1.404440e+03 0.0 0.0 9.0
 2 -1 0 0 101   0  0.000000e+00  0.000000e+00 -4.376586e+03  4.376586e+03 0.0 0.0 9.0
22  1 1 2   0   0 -2.255327e+03  5.072014e+02 -4.413867e+02  2.353418e+03 0.0 0.0 9.0
 2  1 1 2 103   0  2.255327e+03 -5.072014e+02 -2.530760e+03  3.427608e+03 0.0022 0.0 9.0
#pdf 21 2 2.160676e-01 6.733210e-01 5000.0 1.022999e-01 1.812971e-04
</event>
<event>
4 7 1.0 5000.0 7.905138e-03 7.739137e-02
21 -1 0 0 103 101  0.000000e+00  0.000000e+00  1.405594e+03  1.405594e+03 0.0 0.0 9.0
 2 -1 0 0 101   0  0.000000e+00  0.000000e+00 -3.485101e+03  3.485101e+03 0.0 0.0 9.0
22  1 1 2   0   0  2.073561e+03 -6.180898e+00 -1.894814e+03  2.808916e+03 0.0 0.0 9.0
 2  1 1 2 103   0 -2.073561e+03  6.180898e+00 -1.846937e+02  2.081779e+03 0.0022 0.0 9.0
#pdf 21 2 2.162452e-01 5.361694e-01 5000.0 1.020678e-01 1.691644e-03
</event>
<event>
4 7 1.0 5000.0 7.905138e-03 7.739137e-02
21 -1 0 0 103 101  0.000000e+00  0.000000e+00  3.762760e+03  3.762760e+03 0.0 0.0 9.0
 2 -1 0 0 101   0  0.000000e+00  0.000000e+00 -1.514030e+03  1.514030e+03 0.0 0.0 9.0
22  1 1 2   0   0 -4.944337e+02  9.902289e+02 -1.213213e+03  1.642225e+03 0.0 0.0 9.0
 2  1 1 2 103   0  4.944337e+02 -9.902289e+02  3.461942e+03  3.634565e+03 0.0022 0.0 9.0
#pdf 21 2 5.788861e-01 2.329277e-01 5000.0 8.939870e-04 8.256788e-02
</event>
<event>
4 7 1.0 5000.0 7.905138e-03 7.739137e-02
21 -1 0 0 103 101  0.000000e+00  0.000000e+00  4.424281e+03  4.424281e+03 0.0 0.0 9.0
 2 -1 0 0 101   0  0.000000e+00  0.000000e+00 -1.404863e+03  1.404863e+03 0.0 0.0 9.0
 2  1 1 2 103   0  1.158721e+03  1.300285e+03 -5.757225e+02  1.834347e+03 0.0022 0.0 9.0
22  1 1 2   0   0 -1.158721e+03 -1.300285e+03  3.595140e+03  3.994797e+03 0.0 0.0 9.0
#pdf 21 2 6.806586e-01 2.161328e-01 5000.0 1.577510e-04 1.022146e-01
</event>
<event>
4 7 1.0 5000.0 7.905138e-03 7.739137e-02
21 -1 0 0 103 101  0.000000e+00  0.000000e+00  1.567307e+03  1.567307e+03 0.0 0.0 9.0
 2 -1 0 0 101   0  0.000000e+00  0.000000e+00 -4.006526e+03  4.006526e+03 0.0 0.0 9.0
 2  1 1 2 103   0  5.460419e+02 -1.897987e+03  4.957477e+02  2.036242e+03 0.0022 0.0 9.0
22  1 1 2   0   0 -5.460419e+02  1.897987e+03 -2.934967e+03  3.537591e+03 0.0 0.0 9.0
#pdf 21 2 2.411241e-01 6.163887e-01 5000.0 7.455685e-02 4.918735e-04
</event>
<event>
4 7 1.0 5000.0 7.905138e-03 7.739137e-02
21 -1 0 0 103 101  0.000000e+00  0.000000e+00  3.771613e+03  3.771613e+03 0.0 0.0 9.0
 2 -1 0 0 101   0  0.000000e+00  0.000000e+00 -1.646100e+03  1.646100e+03 0.0 0.0 9.0
 2  1 1 2 103   0 -2.130650e+03 -6.141909e+02 -1.727637e+02  2.224129e+03 0.0022 0.0 9.0
22  1 1 2   0   0  2.130650e+03  6.141909e+02  2.298277e+03  3.193584e+03 0.0 0.0 9.0
#pdf 21 2 5.802481e-01 2.532461e-01 5000.0 8.754282e-04 6.410637e-02
</event>
<event>
4 7 1.0 5000.0 7.905138e-03 7.739137e-02
 2 -1 0 0 101   0  0.000000e+00  0.000000e+00  3.283598e+03  3.283598e+03 0.0 0.0 9.0
21 -1 0 0 103 101  0.000000e+00  0.000000e+00 -1.904641e+03  1.904641e+03 0.0 0.0 9.0
 2  1 1 2 103   0  4.489735e+02  9.133348e+02  3.059071e+03  3.223922e+03 0.0022 0.0 9.0
22  1 1 2   0   0 -4.489735e+02 -9.133348e+02 -1.680114e+03  1.964316e+03 0.0 0.0 9.0
#pdf 2 21 5.051690e-01 2.930216e-01 5000.0 6.762334e-02 2.578148e-01
</event>
<event>
4 7 1.0 5000.0 7.905138e-03 7.739137e-02
 2 -1 0 0 101   0  0.000000e+00  0.000000e+00  2.002892e+03  2.002892e+03 0.0 0.0 9.0
21 -1 0 0 103 101  0.000000e+00  0.000000e+00 -3.203767e+03  3.203767e+03 0.0 0.0 9.0
22  1 1 2   0   0  1.299594e+03  1.236413e+02  1.630558e+03  2.088768e+03 0.0 0.0 9.0
 2  1 1 2 103   0 -1.299594e+03 -1.236413e+02 -2.831434e+03  3.117891e+03 0.0022 0.0 9.0
#pdf 2 21 3.081372e-01 4.928873e-01 5000.0 2.393000e-01 7.448587e-02
</event>
<event>
4 7 1.0 5000.0 7.905138e-03 7.739137e-02
21 -1 0 0 103 101  0.000000e+00  0.000000e+00  2.424359e+03  2.424359e+03 0.0 0.0 9.0
 2 -1 0 0 101   0  0.000000e+00  0.000000e+00 -1.895738e+03  1.895738e+03 0.0 0.0 9.0
 2  1 1 2 103   0  6.644548e+02  1.201189e+02 -1.785799e+03  1.909190e+03 0.0022 0.0 9.0
22  1 1 2   0   0 -6.644548e+02 -1.201189e+02  2.314420e+03  2.410906e+03 0.0 0.0 9.0
#pdf 21 2 3.729783e-01 2.916520e-01 5000.0 1.469100e-02 3.993173e-02
</event>
<event>
4 7 1.0 5000.0 7.905138e-03 7.739137e-02
 2 -1 0 0 101   0  0.000000e+00  0.000000e+00  2.282007e+03  2.282007e+03 0.0 0.0 9.0
21 -1 0 0 103 101  0.000000e+00  0.000000e+00 -2.782427e+03  2.782427e+03 0.0 0.0 9.0
22  1 1 2   0   0 -8.064630e+02  2.112486e+03 -1.367676e+03  2.642634e+03 0.0 0.0 9.0
 2  1 1 2 103   0  8.064630e+02 -2.112486e+03  8.672559e+02  2.421799e+03 0.0022 0.0 9.0
#pdf 2 21 3.510780e-01 4.280657e-01 5000.0 1.905174e-01 1.188614e-01
</event>
<event>
4 7 1.0 5000.0 7.905138e-03 7.739137e-02
21 -1 0 0 103 101  0.000000e+00  0.000000e+00  2.092733e+03  2.092733e+03 0.0 0.0 9.0
 2 -1 0 0 101   0  0.000000e+00  0.000000e+00 -3.004619e+03  3.004619e+03 0.0 0.0 9.0
22  1 1 2   0   0 -1.178287e+03 -5.944174e+02  1.711192e+03  2.160988e+03 0.0 0.0 9.0
 2  1 1 2 103   0  1.178287e+03  5.944174e+02 -2.623079e+03  2.936364e+03 0.0022 0.0 9.0
#pdf 21 2 3.219589e-01 4.622491e-01 5000.0 2.752470e-02 4.693065e-03
</event>
<event>
4 7 1.0 5000.0 7.905138e-03 7.739137e-02
21 -1 0 0 103 101  0.000000e+00  0.000000e+00  1.912678e+03  1.912678e+03 0.0 0.0 9.0
 2 -1 0 0 101   0  0.000000e+00  0.000000e+00 -2.781101e+03  2.781101e+03 0.0 0.0 9.0
22  1 1 2   0   0  6.287718e+02  2.217492e+03 -5.176642e+02  2.362330e+03 0.0 0.0 9.0
 2  1 1 2 103   0 -6.287718e+02 -2.217492e+03 -3.507581e+02  2.331449e+03 0.0022 0.0 9.0
#pdf 21 2 2.942582e-01 4.278616e-01 5000.0 3.868350e-02 7.350033e-03
</event>
<event>
4 7 1.0 5000.0 7.905138e-03 7.739137e-02
21 -1 0 0 103 101  0.000000e+00  0.000000e+00  2.387481e+03  2.387481e+03 0.0 0.0 9.0
 2 -1 0 0 101   0  0.000000e+00  0.000000e+00 -2.556015e+03  2.556015e+03 0.0 0.0 9.0
 2  1 1 2 103   0 -8.826746e+02  3.483871e+02 -2.366372e+03  2.549550e+03 0.0022 0.0 9.0
22  1 1 2   0   0  8.826746e+02 -3.483871e+02  2.197838e+03  2.393946e+03 0.0 0.0 9.0
#pdf 21 2 3.673048e-01 3.932332e-01 5000.0 1.575988e-02 1.140988e-02
</event>
<event>
4 7 1.0 5000.0 7.905138e-03 7.739137e-02
21 -1 0 0 103 101  0.000000e+00  0.000000e+00  2.061224e+03  2.061224e+03 0.0 0.0 9.0
 2 -1 0 0 101   0  0.000000e+00  0.000000e+00 -2.265986e+03  2.265986e+03 0.0 0.0 9.0
22  1 1 2   0   0 -6.860129e+01  1.863881e+03 -1.195368e+03  2.215325e+03 0.0 0.0 9.0
 2  1 1 2 103   0  6.860129e+01 -1.863881e+03  9.906050e+02  2.111885e+03 0.0022 0.0 9.0
#pdf 21 2 3.171113e-01 3.486133e-01 5000.0 2.921016e-02 1.985565e-02
</event>
<event>
4 7 1.0 5000.0 7.905138e-03 7.739137e-02
21 -1 0 0 103 101  0.000000e+00  0.000000e+00  2.979897e+03  2.979897e+03 0.0 0.0 9.0
 2 -1 0 0 101   0  0.000000e+00  0.000000e+00 -2.107834e+03  2.107834e+03 0.0 0.0 9.0
 2  1 1 2 103   0  1.949675e+03 -7.028579e+02 -9.943528e+02  2.298691e+03 0.0022 0.0 9.0
22  1 1 2   0   0 -1.949675e+03  7.028579e+02  1.866415e+03  2.789040e+03 0.0 0.0 9.0
#pdf 21 2 4.584456e-01 3.242822e-01 5000.0 4.936740e-03 2.675344e-02
</event>
<event>
4 7 1.0 5000.0 7.905138e-03 7.739137e-02
 2 -1 0 0 101   0  0.000000e+00  0.000000e+00  3.517934e+03  3.517934e+03 0.0 0.0 9.0
21 -1 0 0 103 101  0.000000e+00  0.000000e+00 -1.790450e+03  1.790450e+03 0.0 0.0 9.0
 2  1 1 2 103   0 -6.327992e+02  1.377391e+03  2.979149e+03  3.342599e+03 0.0022 0.0 9.0
22  1 1 2   0   0  6.327992e+02 -1.377391e+03 -1.251665e+03  1.965784e+03 0.0 0.0 9.0
#pdf 2 21 5.412205e-01 2.754539e-01 5000.0 5.007051e-02 2.801126e-01
</event>
<event>
4 7 1.0 5000.0 7.905138e-03 7.739137e-02
21 -1 0 0 103 101  0.000000e+00  0.000000e+00  2.613709e+03  2.613709e+03 0.0 0.0 9.0
 2 -1 0 0 101   0  0.000000e+00  0.000000e+00 -2.531355e+03  2.531355e+03 0.0 0.0 9.0
22  1 1 2   0   0 -2.514525e+03  7.362770e+01 -4.955191e+02  2.563941e+03 0.0 0.0 9.0
 2  1 1 2 103   0  2.514525e+03 -7.362770e+01  5.778740e+02  2.581123e+03 0.0022 0.0 9.0
#pdf 21 2 4.021091e-01 3.894392e-01 5000.0 1.020519e-02 1.196778e-02
</event>
<event>
4 7 1.0 5000.0 7.905138e-03 7.739137e-02
21 -1 0 0 103 101  0.000000e+00  0.000000e+00  2.219079e+03  2.219079e+03 0.0 0.0 9.0
 2 -1 0 0 101   0  0.000000e+00  0.000000e+00 -2.751781e+03  2.751781e+03 0.0 0.0 9.0
22  1 1 2   0   0  5.725768e+02 -1.607365e+03  1.531445e+03  2.292769e+03 0.0 0.0 9.0
 2  1 1 2 103   0 -5.725768e+02  1.607365e+03 -2.064147e+03  2.678091e+03 0.0022 0.0 9.0
#pdf 21 2 3.413968e-01 4.233510e-01 5000.0 2.168895e-02 7.789380e-03
</event>
<event>
4 7 1.0 5000.0 7.905138e-03 7.739137e-02
21 -1 0 0 103 101  0.000000e+00  0.000000e+00  3.979034e+03  3.979034e+03 0.0 0.0 9.0
 2 -1 0 0 101   0  0.000000e+00  0.000000e+00 -1.535538e+03  1.535538e+03 0.0 0.0 9.0
22  1 1 2   0   0 -2.379551e+03  3.281846e+02  5.713282e+02  2.469086e+03 0.0 0.0 9.0
 2  1 1 2 103   0  2.379551e+03 -3.281846e+02  1.872168e+03  3.045486e+03 0.0022 0.0 9.0
#pdf 21 2 6.121591e-01 2.362366e-01 5000.0 5.272242e-04 7.924607e-02
</event>
<event>
4 7 1.0 5000.0 7.905138e-03 7.739137e-02
 2 -1 0 0 101   0  0.000000e+00  0.000000e+00  2.455469e+03  2.455469e+03 0.0 0.0 9.0
21 -1 0 0 103 101  0.000000e+00  0.000000e+00 -2.580144e+03  2.580144e+03 0.0 0.0 9.0
 2  1 1 2 103   0  1.156901e+03  1.593251e+03 -1.630808e+03  2.556640e+03 0.0022 0.0 9.0
22  1 1 2   0   0 -1.156901e+03 -1.593251e+03  1.506133e+03  2.478973e+03 0.0 0.0 9.0
#pdf 2 21 3.777644e-01 3.969452e-01 5000.0 1.633252e-01 1.453273e-01
</event>
<event>
4 7 1.0 5000.0 7.905138e-03 7.739137e-02
21 -1 0 0 103 101  0.000000e+00  0.000000e+00  2.725743e+03  2.725743e+03 0.0 0.0 9.0
 2 -1 0 0 101   0  0.000000e+00  0.000000e+00 -2.273502e+03  2.273502e+03 0.0 0.0 9.0
22  1 1 2   0   0 -8.738853e+02 -2.170180e+03 -6.280417e+02  2.422353e+03 0.0 0.0 9.0
 2  1 1 2 103   0  8.738853e+02  2.170180e+03  1.080283e+03  2.576891e+03 0.0022 0.0 9.0
#pdf 21 2 4.193450e-01 3.497695e-01 5000.0 8.198486e-03 1.957527e-02
</event>
<event>
4 7 1.0 5000.0 7.905138e-03 7.739137e-02
 2 -1 0 0 101   0  0.000000e+00  0.000000e+00  2.334063e+03  2.334063e+03 0.0 0.0 9.0
21 -1 0 0 103 101  0.000000e+00  0.000000e+00 -2.478013e+03  2.478013e+03 0.0 0.0 9.0
22  1 1 2   0   0 -3.572756e+01  1.010828e+03 -2.254875e+03  2.471338e+03 0.0 0.0 9.0
 2  1 1 2 103   0  3.572756e+01 -1.010828e+03  2.110925e+03  2.340738e+03 0.0022 0.0 9.0
#pdf 2 21 3.590866e-01 3.812328e-01 5000.0 1.820952e-01 1.599762e-01
</event>
<event>
4 7 1.0 5000.0 7.905138e-03 7.739137e-02
 2 -1 0 0 101   0  0.000000e+00  0.000000e+00  1.890602e+03  1.890602e+03 0.0 0.0 9.0
21 -1 0 0 103 101  0.000000e+00  0.000000e+00 -3.396876e+03  3.396876e+03 0.0 0.0 9.0
22  1 1 2   0   0  1.928119e+03 -1.212214e+03 -1.912496e+03  2.974012e+03 0.0 0.0 9.0
 2  1 1 2 103   0 -1.928119e+03  1.212214e+03  4.062219e+02  2.313466e+03 0.0022 0.0 9.0
#pdf 2 21 2.908618e-01 5.225963e-01 5000.0 2.605161e-01 5.867256e-02
</event>
<event>
4 7 1.0 5000.0 7.905138e-03 7.739137e-02
 2 -1 0 0 101   0  0.000000e+00  0.000000e+00  1.700276e+03  1.700276e+03 0.0 0.0 9.0
21 -1 0 0 103 101  0.000000e+00  0.000000e+00 -3.738888e+03  3.738888e+03 0.0 0.0 9.0
22  1 1 2   0   0 -3.747886e+02 -1.222170e+03  1.324810e+03  1.841002e+03 0.0 0.0 9.0
 2  1 1 2 103   0  3.747886e+02  1.222170e+03 -3.363422e+03  3.598162e+03 0.0022 0.0 9.0
#pdf 2 21 2.615809e-01 5.752136e-01 5000.0 2.982210e-01 3.677504e-02
</event>
<event>
4 7 1.0 5000.0 7.905138e-03 7.739137e-02
21 -1 0 0 103 101  0.000000e+00  0.000000e+00  2.648477e+03  2.648477e+03 0.0 0.0 9.0
 2 -1 0 0 101   0  0.000000e+00  0.000000e+00 -2.571671e+03  2.571671e+03 0.0 0.0 9.0
 2  1 1 2 103   0 -1.043692e+03 -1.265561e+03  2.068419e+03  2.639942e+03 0.0022 0.0 9.0
22  1 1 2   0   0  1.043692e+03  1.265561e+03 -1.991613e+03  2.580206e+03 0.0 0.0 9.0
#pdf 21 2 4.074580e-01 3.956417e-01 5000.0 9.537577e-03 1.106978e-02
</event>
<event>
4 7 1.0 5000.0 7.905138e-03 7.739137e-02
21 -1 0 0 103 101  0.000000e+00  0.000000e+00  3.173102e+03  3.173102e+03 0.0 0.0 9.0
 2 -1 0 0 101   0  0.000000e+00  0.000000e+00 -1.878779e+03  1.878779e+03 0.0 0.0 9.0
 2  1 1 2 103   0 -3.532649e+02 -1.108931e+03  2.867678e+03  3.094851e+03 0.0022 0.0 9.0
22  1 1 2   0   0  3.532649e+02  1.108931e+03 -1.573355e+03  1.957031e+03 0.0 0.0 9.0
#pdf 21 2 4.881696e-01 2.890430e-01 5000.0 3.313821e-03 4.121384e-02
</event>
<event>
4 7 1.0 5000.0 7.905138e-03 7.739137e-02
 2 -1 0 0 101   0  0.000000e+00  0.000000e+00  2.788200e+03  2.788200e+03 0.0 0.0 9.0
21 -1 0 0 103 101  0.000000e+00  0.000000e+00 -1.990115e+03  1.990115e+03 0.0 0.0 9.0
22  1 1 2   0   0  2.046130e+03 -1.058791e+03 -9.902603e+01  2.305969e+03 0.0 0.0 9.0
 2  1 1 2 103   0 -2.046130e+03  1.058791e+03  8.971106e+02  2.472346e+03 0.0022 0.0 9.0
#pdf 2 21 4.289538e-01 3.061716e-01 5000.0 1.181577e-01 2.416717e-01
</event>
<event>
4 7 1.0 5000.0 7.905138e-03 7.739137e-02
21 -1 0 0 103 101  0.000000e+00  0.000000e+00  1.922859e+03  1.922859e+03 0.0 0.0 9.0
 2 -1 0 0 101   0  0.000000e+00  0.000000e+00 -3.226756e+03  3.226756e+03 0.0 0.0 9.0
22  1 1 2   0   0  1.916737e+02  9.156437e+02 -3.038272e+03  3.179031e+03 0.0 0.0 9.0
 2  1 1 2 103   0 -1.916737e+02 -9.156437e+02  1.734375e+03  1.970583e+03 0.0022 0.0 9.0
#pdf 21 2 2.958244e-01 4.964240e-01 5000.0 3.794568e-02 2.960991e-03
</event>
<event>
4 7 1.0 5000.0 7.905138e-03 7.739137e-02
21 -1 0 0 103 101  0.000000e+00  0.000000e+00  3.259233e+03  3.259233e+03 0.0 0.0 9.0
 2 -1 0 0 101   0  0.000000e+00  0.000000e+00 -1.939023e+03  1.939023e+03 0.0 0.0 9.0
22  1 1 2   0   0  1.224657e+03 -2.112710e+03  1.277334e+03  2.755887e+03 0.0 0.0 9.0
 2  1 1 2 103   0 -1.224657e+03  2.112710e+03  4.287608e+01  2.442369e+03 0.0022 0.0 9.0
#pdf 21 2 5.014205e-01 2.983112e-01 5000.0 2.763413e-03 3.678842e-02
</event>
<event>
4 7 1.0 5000.0 7.905138e-03 7.739137e-02
21 -1 0 0 103 101  0.000000e+00  0.000000e+00  2.159638e+03  2.159638e+03 0.0 0.0 9.0
 2 -1 0 0 101   0  0.000000e+00  0.000000e+00 -2.955277e+03  2.955277e+03 0.0 0.0 9.0
22  1 1 2   0   0 -1.260128e+03  7.614803e+02  1.680416e+03  2.234183e+03 0.0 0.0 9.0
 2  1 1 2 103   0  1.260128e+03 -7.614803e+02 -2.476054e+03  2.880732e+03 0.0022 0.0 9.0
#pdf 21 2 3.322520e-01 4.546579e-01 5000.0 2.426718e-02 5.191600e-03
</event>
<event>
4 7 1.0 5000.0 7.905138e-03 7.739137e-02
 2 -1 0 0 101   0  0.000000e+00  0.000000e+00  3.235310e+03  3.235310e+03 0.0 0.0 9.0
21 -1 0 0 103 101  0.000000e+00  0.000000e+00 -1.937982e+03  1.937982e+03 0.0 0.0 9.0
22  1 1 2   0   0 -2.285022e+03  1.365916e+02 -3.997198e+02  2.323738e+03 0.0 0.0 9.0
 2  1 1 2 103   0  2.285022e+03 -1.365916e+02  1.697048e+03  2.849553e+03 0.0022 0.0 9.0
#pdf 2 21 4.977400e-01 2.981510e-01 5000.0 7.171814e-02 2.514652e-01
</event>
<event>
4 7 1.0 5000.0 7.905138e-03 7.739137e-02
 2 -1 0 0 101   0  0.000000e+00  0.000000e+00  3.106085e+03  3.106085e+03 0.0 0.0 9.0
21 -1 0 0 103 101  0.000000e+00  0.000000e+00 -2.021349e+03  2.021349e+03 0.0 0.0 9.0
 2  1 1 2 103   0  5.743832e+02 -1.835874e+03  2.185209e+03  2.911269e+03 0.0022 0.0 9.0
22  1 1 2   0   0 -5.743832e+02  1.835874e+03 -1.100473e+03  2.216165e+03 0.0 0.0 9.0
#pdf 2 21 4.778593e-01 3.109768e-01 5000.0 8.353059e-02 2.358963e-01
</event>
<event>
4 7 1.0 5000.0 7.905138e-03 7.739137e-02
21 -1 0 0 103 101  0.000000e+00  0.000000e+00  1.854742e+03  1.854742e+03 0.0 0.0 9.0
 2 -1 0 0 101   0  0.000000e+00  0.000000e+00 -3.395095e+03  3.395095e+03 0.0 0.0 9.0
22  1 1 2   0   0 -2.459747e+03  3.097971e+02 -1.176245e+03  2.744063e+03 0.0 0.0 9.0
 2  1 1 2 103   0  2.459747e+03 -3.097971e+02 -3.641085e+02  2.505774e+03 0.0022 0.0 9.0
#pdf 21 2 2.853449e-01 5.223224e-01 5000.0 4.310307e-02 2.062825e-03
</event>
<event>
4 7 1.0 5000.0 7.905138e-03 7.739137e-02
21 -1 0 0 103 101  0.000000e+00  0.000000e+00  4.089007e+03  4.089007e+03 0.0 0.0 9.0
 2 -1 0 0 101   0  0.000000e+00  0.000000e+00 -1.735425e+03  1.735425e+03 0.0 0.0 9.0
 2  1 1 2 103   0 -3.447454e+02 -2.180442e+03 -4.531817e+02  2.253564e+03 0.0022 0.0 9.0
22  1 1 2   0   0  3.447454e+02  2.180442e+03  2.806764e+03  3.570868e+03 0.0 0.0 9.0
#pdf 21 2 6.290780e-01 2.669885e-01 5000.0 3.977932e-04 5.401238e-02
</event>
<event>
4 7 1.0 5000.0 7.905138e-03 7.739137e-02
21 -1 0 0 103 101  0.000000e+00  0.000000e+00  2.352380e+03  2.352380e+03 0.0 0.0 9.0
 2 -1 0 0 101   0  0.000000e+00  0.000000e+00 -2.641730e+03  2.641730e+03 0.0 0.0 9.0
22  1 1 2   0   0 -4.958058e+02  3.935195e+02  2.270538e+03  2.357122e+03 0.0 0.0 9.0
 2  1 1 2 103   0  4.958058e+02 -3.935195e+02 -2.559888e+03  2.636989e+03 0.0022 0.0 9.0
#pdf 21 2 3.619046e-01 4.064201e-01 5000.0 1.685094e-02 9.664078e-03
</event>
<event>
4 7 1.0 5000.0 7.905138e-03 7.739137e-02
21 -1 0 0 103 101  0.000000e+00  0.000000e+00  3.424421e+03  3.424421e+03 0.0 0.0 9.0
 2 -1 0 0 101   0  0.000000e+00  0.000000e+00 -1.319265e+03  1.319265e+03 0.0 0.0 9.0
22  1 1 2   0   0  1.882332e+03 -2.609240e+01 -4.864497e+01  1.883141e+03 0.0 0.0 9.0
 2  1 1 2 103   0 -1.882332e+03  2.609240e+01  2.153802e+03  2.860545e+03 0.0022 0.0 9.0
#pdf 21 2 5.268341e-01 2.029638e-01 5000.0 1.935344e-03 1.210203e-01
</event>
<event>
4 7 1.0 5000.0 7.905138e-03 7.739137e-02
21 -1 0 0 103 101  0.000000e+00  0.000000e+00  4.382204e+03  4.382204e+03 0.0 0.0 9.0
 2 -1 0 0 101   0  0.000000e+00  0.000000e+00 -1.402150e+03  1.402150e+03 0.0 0.0 9.0
 2  1 1 2 103   0  2.467816e+03 -5.859907e+01  1.226649e+03  2.756487e+03 0.0022 0.0 9.0
22  1 1 2   0   0 -2.467816e+03  5.859907e+01  1.753406e+03  3.027867e+03 0.0 0.0 9.0
#pdf 21 2 6.741853e-01 2.157153e-01 5000.0 1.783665e-04 1.027617e-01
</event>
<event>
4 7 1.0 5000.0 7.905138e-03 7.739137e-02
 2 -1 0 0 101   0  0.000000e+00  0.000000e+00  1.373630e+03  1.373630e+03 0.0 0.0 9.0
21 -1 0 0 103 101  0.000000e+00  0.000000e+00 -3.899001e+03  3.899001e+03 0.0 0.0 9.0
 2  1 1 2 103   0 -2.308088e+03  1.025613e+02 -1.415494e+03  2.709504e+03 0.0022 0.0 9.0
22  1 1 2   0   0  2.308088e+03 -1.025613e+02 -1.109877e+03  2.563127e+03 0.0 0.0 9.0
#pdf 2 21 2.113276e-01 5.998463e-01 5000.0 3.663630e-01 2.890770e-02
</event>
<event>
4 7 1.0 5000.0 7.905138e-03 7.739137e-02
21 -1 0 0 103 101  0.000000e+00  0.000000e+00  3.867423e+03  3.867423e+03 0.0 0.0 9.0
 2 -1 0 0 101   0  0.000000e+00  0.000000e+00 -1.604542e+03  1.604542e+03 0.0 0.0 9.0
22  1 1 2   0   0 -2.204022e+02  1.439245e+03 -1.088526e+03  1.817936e+03 0.0 0.0 9.0
 2  1 1 2 103   0  2.204022e+02 -1.439245e+03  3.351406e+03  3.654029e+03 0.0022 0.0 9.0
#pdf 21 2 5.949881e-01 2.468526e-01 5000.0 6.949726e-04 6.934821e-02
</event>
<event>
4 7 1.0 5000.0 7.905138e-03 7.739137e-02
21 -1 0 0 103 101  0.000000e+00  0.000000e+00  2.007956e+03  2.007956e+03 0.0 0.0 9.0
 2 -1 0 0 101   0  0.000000e+00  0.000000e+00 -2.575919e+03  2.575919e+03 0.0 0.0 9.0
22  1 1 2   0   0  3.104819e+02 -1.664758e+03 -1.813833e+03  2.481493e+03 0.0 0.0 9.0
 2  1 1 2 103   0 -3.104819e+02  1.664758e+03  1.245871e+03  2.102382e+03 0.0022 0.0 9.0
#pdf 21 2 3.089164e-01 3.962952e-01 5000.0 3.232510e-02 1.097928e-02
</event>
<event>
4 7 1.0 5000.0 7.905138e-03 7.739137e-02
 2 -1 0 0 101   0  0.000000e+00  0.000000e+00  3.086746e+03  3.086746e+03 0.0 0.0 9.0
21 -1 0 0 103 101  0.000000e+00  0.000000e+00 -2.091018e+03  2.091018e+03 0.0 0.0 9.0
 2  1 1 2 103   0 -8.068750e+02 -2.379990e+03  1.178868e+02  2.515809e+03 0.0022 0.0 9.0
22  1 1 2   0   0  8.068750e+02  2.379990e+03  8.778416e+02  2.661955e+03 0.0 0.0 9.0
#pdf 2 21 4.748841e-01 3.216951e-01 5000.0 8.540929e-02 2.232738e-01
</event>
<event>
4 7 1.0 5000.0 7.905138e-03 7.739137e-02
 2 -1 0 0 101   0  0.000000e+00  0.000000e+00  1.642188e+03  1.642188e+03 0.0 0.0 9.0
21 -1 0 0 103 101  0.000000e+00  0.000000e+00 -4.257811e+03  4.257811e+03 0.0 0.0 9.0
 2  1 1 2 103   0  7.232393e+02 -2.133325e+03  2.372256e+02  2.265045e+03 0.0022 0.0 9.0
22  1 1 2   0   0 -7.232393e+02  2.133325e+03 -2.852848e+03  3.634955e+03 0.0 0.0 9.0
#pdf 2 21 2.526444e-01 6.550478e-01 5000.0 3.100565e-01 1.583468e-02
</event>
<event>
4 7 1.0 5000.0 7.905138e-03 7.739137e-02
21 -1 0 0 103 101  0.000000e+00  0.000000e+00  1.790977e+03  1.790977e+03 0.0 0.0 9.0
 2 -1 0 0 101   0  0.000000e+00  0.000000e+00 -3.246484e+03  3.246484e+03 0.0 0.0 9.0
22  1 1 2   0   0 -2.367798e+03  3.617189e+02 -4.377679e+02  2.434943e+03 0.0 0.0 9.0
 2  1 1 2 103   0  2.367798e+03 -3.617189e+02 -1.017739e+03  2.602518e+03 0.0022 0.0 9.0
#pdf 21 2 2.755349e-01 4.994591e-01 5000.0 4.862315e-02 2.839566e-03
</event>
<event>
4 7 1.0 5000.0 7.905138e-03 7.739137e-02
 2 -1 0 0 101   0  0.000000e+00  0.000000e+00  2.885835e+03  2.885835e+03 0.0 0.0 9.0
21 -1 0 0 103 101  0.000000e+00  0.000000e+00 -2.079500e+03  2.079500e+03 0.0 0.0 9.0
 2  1 1 2 103   0  1.266194e+03  9.922626e+02 -1.469187e+03  2.178610e+03 0.0022 0.0 9.0
22  1 1 2   0   0 -1.266194e+03 -9.922626e+02  2.275522e+03  2.786724e+03 0.0 0.0 9.0
#pdf 2 21 4.439746e-01 3.199231e-01 5000.0 1.066571e-01 2.253380e-01
</event>
<event>
4 7 1.0 5000.0 7.905138e-03 7.739137e-02
 2 -1 0 0 101   0  0.000000e+00  0.000000e+00  3.602565e+03  3.602565e+03 0.0 0.0 9.0
21 -1 0 0 103 101  0.000000e+00  0.000000e+00 -1.218576e+03  1.218576e+03 0.0 0.0 9.0
 2  1 1 2 103   0  5.806674e+02 -1.352225e+03  2.907868e+03  3.259046e+03 0.0022 0.0 9.0
22  1 1 2   0   0 -5.806674e+02  1.352225e+03 -5.238790e+02  1.562094e+03 0.0 0.0 9.0
#pdf 2 21 5.542407e-01 1.874732e-01 5000.0 4.462696e-02 3.992470e-01
</event>
<event>
4 7 1.0 5000.0 7.905138e-03 7.739137e-02
 2 -1 0 0 101   0  0.000000e+00  0.000000e+00  2.261654e+03  2.261654e+03 0.0 0.0 9.0
21 -1 0 0 103 101  0.000000e+00  0.000000e+00 -2.796366e+03  2.796366e+03 0.0 0.0 9.0
 2  1 1 2 103   0 -6.130081e+02  2.382944e+03 -7.901034e+02  2.584273e+03 0.0022 0.0 9.0
22  1 1 2   0   0  6.130081e+02 -2.382944e+03  2.553910e+02  2.473747e+03 0.0 0.0 9.0
#pdf 2 21 3.479467e-01 4.302102e-01 5000.0 1.938720e-01 1.171674e-01
</event>
<event>
4 7 1.0 5000.0 7.905138e-03 7.739137e-02
21 -1 0 0 103 101  0.000000e+00  0.000000e+00  1.878483e+03  1.878483e+03 0.0 0.0 9.0
 2 -1 0 0 101   0  0.000000e+00  0.000000e+00 -3.373658e+03  3.373658e+03 0.0 0.0 9.0
 2  1 1 2 103   0  3.108101e+01  1.030992e+03  1.647932e+03  1.944117e+03 0.0022 0.0 9.0
22  1 1 2   0   0 -3.108101e+01 -1.030992e+03 -3.143106e+03  3.308025e+03 0.0 0.0 9.0
#pdf 21 2 2.889975e-01 5.190243e-01 5000.0 4.123653e-02 2.161271e-03
</event>
<event>
4 7 1.0 5000.0 7.905138e-03 7.739137e-02
21 -1 0 0 103 101  0.000000e+00  0.000000e+00  1.384744e+03  1.384744e+03 0.0 0.0 9.0
 2 -1 0 0 101   0  0.000000e+00  0.000000e+00 -4.475859e+03  4.475859e+03 0.0 0.0 9.0
 2  1 1 2 103   0 -9.828690e+02 -1.248395e+03  7.103602e+02  1.740441e+03 0.0022 0.0 9.0
22  1 1 2   0   0  9.828690e+02  1.248395e+03 -3.801476e+03  4.120163e+03 0.0 0.0 9.0
#pdf 21 2 2.130375e-01 6.885938e-01 5000.0 1.063344e-01 1.356486e-04
</event>
<event>
4 7 1.0 5000.0 7.905138e-03 7.739137e-02
21 -1 0 0 103 101  0.000000e+00  0.000000e+00  2.529541e+03  2.529541e+03 0.0 0.0 9.0
 2 -1 0 0 101   0  0.000000e+00  0.000000e+00 -2.301776e+03  2.301776e+03 0.0 0.0 9.0
22  1 1 2   0   0 -3.180900e+02 -2.391416e+03  6.498237e+01  2.413354e+03 0.0 0.0 9.0
 2  1 1 2 103   0  3.180900e+02  2.391416e+03  1.627827e+02  2.417964e+03 0.0022 0.0 9.0
#pdf 21 2 3.891602e-01 3.541194e-01 5000.0 1.200994e-02 1.854721e-02
</event>
<event>
4 7 1.0 5000.0 7.905138e-03 7.739137e-02
 2 -1 0 0 101   0  0.000000e+00  0.000000e+00  3.052955e+03  3.052955e+03 0.0 0.0 9.0
21 -1 0 0 103 101  0.000000e+00  0.000000e+00 -2.005547e+03  2.005547e+03 0.0 0.0 9.0
22  1 1 2   0   0  2.237410e+03 -1.044296e+03  3.579773e+02  2.494936e+03 0.0 0.0 9.0
 2  1 1 2 103   0 -2.237410e+03  1.044296e+03  6.894305e+02  2.563566e+03 0.0022 0.0 9.0
#pdf 2 21 4.696853e-01 3.085457e-01 5000.0 8.876120e-02 2.388088e-01
</event>
<event>
4 7 1.0 5000.0 7.905138e-03 7.739137e-02
21 -1 0 0 103 101  0.000000e+00  0.000000e+00  2.878706e+03  2.878706e+03 0.0 0.0 9.0
 2 -1 0 0 101   0  0.000000e+00  0.000000e+00 -2.187025e+03  2.187025e+03 0.0 0.0 9.0
 2  1 1 2 103   0  1.426207e+03  9.515798e+02  2.195163e+03  2.785375e+03 0.0022 0.0 9.0
22  1 1 2   0   0 -1.426207e+03 -9.515798e+02 -1.503482e+03  2.280357e+03 0.0 0.0 9.0
#pdf 21 2 4.428779e-01 3.364654e-01 5000.0 6.057420e-03 2.304166e-02
</event>
<event>
4 7 1.0 5000.0 7.905138e-03 7.739137e-02
 2 -1 0 0 101   0  0.000000e+00  0.000000e+00  1.831011e+03  1.831011e+03 0.0 0.0 9.0
21 -1 0 0 103 101  0.000000e+00  0.000000e+00 -3.416401e+03  3.416401e+03 0.0 0.0 9.0
 2  1 1 2 103   0  8.675771e+02 -1.685751e+03  9.185387e+02  2.106694e+03 0.0022 0.0 9.0
22  1 1 2   0   0 -8.675771e+02  1.685751e+03 -2.503929e+03  3.140717e+03 0.0 0.0 9.0
#pdf 2 21 2.816939e-01 5.256001e-01 5000.0 2.721126e-01 5.722218e-02
</event>
<event>
4 7 1.0 5000.0 7.905138e-03 7.739137e-02
 2 -1 0 0 101   0  0.000000e+00  0.000000e+00  3.877282e+03  3.877282e+03 0.0 0.0 9.0
21 -1 0 0 103 101  0.000000e+00  0.000000e+00 -1.516716e+03  1.516716e+03 0.0 0.0 9.0
22  1 1 2   0   0  7.437078e+02  8.986998e+01  3.745374e+03  3.819555e+03 0.0 0.0 9.0
 2  1 1 2 103   0 -7.437078e+02 -8.986998e+01 -1.384807e+03  1.574442e+03 0.0022 0.0 9.0
#pdf 2 21 5.965049e-01 2.333409e-01 5000.0 2.989332e-02 3.361491e-01
</event>
<event>
4 7 1.0 5000.0 7.905138e-03 7.739137e-02
21 -1 0 0 103 101  0.000000e+00  0.000000e+00  2.885236e+03  2.885236e+03 0.0 0.0 9.0
 2 -1 0 0 101   0  0.000000e+00  0.000000e+00 -2.156292e+03  2.156292e+03 0.0 0.0 9.0
22  1 1 2   0   0  2.341472e+03  4.283364e+02  1.117670e+03  2.629668e+03 0.0 0.0 9.0
 2  1 1 2 103   0 -2.341472e+03 -4.283364e+02 -3.887253e+02  2.411861e+03 0.0022 0.0 9.0
#pdf 21 2 4.438825e-01 3.317372e-01 5000.0 5.976925e-03 2.442088e-02
</event>
<event>
4 7 1.0 5000.0 7.905138e-03 7.739137e-02
21 -1 0 0 103 101  0.000000e+00  0.000000e+00  1.603717e+03  1.603717e+03 0.0 0.0 9.0
 2 -1 0 0 101   0  0.000000e+00  0.000000e+00 -3.761505e+03  3.761505e+03 0.0 0.0 9.0
 2  1 1 2 103   0  1.047956e+03 -1.644170e+02  1.340616e+03  1.709531e+03 0.0022 0.0 9.0
22  1 1 2   0   0 -1.047956e+03  1.644170e+02 -3.498405e+03  3.655691e+03 0.0 0.0 9.0
#pdf 21 2 2.467257e-01 5.786931e-01 5000.0 6.945458e-02 8.966461e-04
</event>
<event>
4 7 1.0 5000.0 7.905138e-03 7.739137e-02
 2 -1 0 0 101   0  0.000000e+00  0.000000e+00  1.811020e+03  1.811020e+03 0.0 0.0 9.0
21 -1 0 0 103 101  0.000000e+00  0.000000e+00 -3.436838e+03  3.436838e+03 0.0 0.0 9.0
22  1 1 2   0   0 -1.755343e+03 -1.767561e+03 -6.691735e+02  2.579399e+03 0.0 0.0 9.0
 2  1 1 2 103   0  1.755343e+03  1.767561e+03 -9.566445e+02  2.668459e+03 0.0022 0.0 9.0
#pdf 2 21 2.786184e-01 5.287443e-01 5000.0 2.760415e-01 5.573070e-02
</event>
<event>
4 7 1.0 5000.0 7.905138e-03 7.739137e-02
21 -1 0 0 103 101  0.000000e+00  0.000000e+00  2.170585e+03  2.170585e+03 0.0 0.0 9.0
 2 -1 0 0 101   0  0.000000e+00  0.000000e+00 -2.628867e+03  2.628867e+03 0.0 0.0 9.0
 2  1 1 2 103   0 -2.243097e+03 -6.698161e+02  2.484812e+02  2.354120e+03 0.0022 0.0 9.0
22  1 1 2   0   0  2.243097e+03  6.698161e+02 -7.067632e+02  2.445333e+03 0.0 0.0 9.0
#pdf 21 2 3.339362e-01 4.044411e-01 5000.0 2.377050e-02 9.909249e-03
</event>
<event>
4 7 1.0 5000.0 7.905138e-03 7.739137e-02
 2 -1 0 0 101   0  0.000000e+00  0.000000e+00  3.382110e+03  3.382110e+03 0.0 0.0 9.0
21 -1 0 0 103 101  0.000000e+00  0.000000e+00 -1.833762e+03  1.833762e+03 0.0 0.0 9.0
22  1 1 2   0   0 -1.296586e+03 -1.403483e+03 -8.984339e+02  2.111417e+03 0.0 0.0 9.0
 2  1 1 2 103   0  1.296586e+03  1.403483e+03  2.446781e+03  3.104455e+03 0.0022 0.0 9.0
#pdf 2 21 5.203246e-01 2.821173e-01 5000.0 5.978705e-02 2.715738e-01
</event>
<event>
4 7 1.0 5000.0 7.905138e-03 7.739137e-02
 2 -1 0 0 101   0  0.000000e+00  0.000000e+00  3.759235e+03  3.759235e+03 0.0 0.0 9.0
21 -1 0 0 103 101  0.000000e+00  0.000000e+00 -1.753974e+03  1.753974e+03 0.0 0.0 9.0
 2  1 1 2 103   0 -2.240776e+03  1.093137e+03  1.662280e+03  2.996532e+03 0.0022 0.0 9.0
22  1 1 2   0   0  2.240776e+03 -1.093137e+03  3.429806e+02  2.516677e+03 0.0 0.0 9.0
#pdf 2 21 5.783438e-01 2.698421e-01 5000.0 3.569667e-02 2.873934e-01
</event>
<event>
4 7 1.0 5000.0 7.905138e-03 7.739137e-02
 2 -1 0 0 101   0  0.000000e+00  0.000000e+00  3.363087e+03  3.363087e+03 0.0 0.0 9.0
21 -1 0 0 103 101  0.000000e+00  0.000000e+00 -1.652320e+03  1.652320e+03 0.0 0.0 9.0
 2  1 1 2 103   0  1.206628e+03  4.102592e+02  2.964991e+03  3.227295e+03 0.0022 0.0 9.0
22  1 1 2   0   0 -1.206628e+03 -4.102592e+02 -1.254224e+03  1.788112e+03 0.0 0.0 9.0
#pdf 2 21 5.173980e-01 2.542031e-01 5000.0 6.124637e-02 3.079785e-01
</event>
<event>
4 7 1.0 5000.0 7.905138e-03 7.739137e-02
 2 -1 0 0 101   0  0.000000e+00  0.000000e+00  4.559687e+03  4.559687e+03 0.0 0.0 9.0
21 -1 0 0 103 101  0.000000e+00  0.000000e+00 -1.360674e+03  1.360674e+03 0.0 0.0 9.0
22  1 1 2   0   0 -8.109805e+02  2.318900e+03  1.110571e+03  2.695989e+03 0.0 0.0 9.0
 2  1 1 2 103   0  8.109805e+02 -2.318900e+03  2.088442e+03  3.224373e+03 0.0022 0.0 9.0
#pdf 2 21 7.014903e-01 2.093345e-01 5000.0 8.770175e-03 3.691356e-01
</event>
<event>
4 7 1.0 5000.0 7.905138e-03 7.739137e-02
 2 -1 0 0 101   0  0.000000e+00  0.000000e+00  1.716669e+03  1.716669e+03 0.0 0.0 9.0
21 -1 0 0 103 101  0.000000e+00  0.000000e+00 -3.563388e+03  3.563388e+03 0.0 0.0 9.0
22  1 1 2   0   0 -1.487338e+03 -2.334120e+02  1.171199e+03  1.907450e+03 0.0 0.0 9.0
 2  1 1 2 103   0  1.487338e+03  2.334120e+02 -3.017918e+03  3.372608e+03 0.0022 0.0 9.0
#pdf 2 21 2.641030e-01 5.482135e-01 5000.0 2.949049e-01 4.709025e-02
</event>
<event>
4 7 1.0 5000.0 7.905138e-03 7.739137e-02
 2 -1 0 0 101   0  0.000000e+00  0.000000e+00  2.728989e+03  2.728989e+03 0.0 0.0 9.0
21 -1 0 0 103 101  0.000000e+00  0.000000e+00 -2.294936e+03  2.294936e+03 0.0 0.0 9.0
22  1 1 2   0   0 -1.582903e+03  6.570952e+02  2.047466e+03  2.670107e+03 0.0 0.0 9.0
 2  1 1 2 103   0  1.582903e+03 -6.570952e+02 -1.613413e+03  2.353817e+03 0.0022 0.0 9.0
#pdf 2 21 4.198444e-01 3.530670e-01 5000.0 1.255179e-01 1.884044e-01
</event>
<event>
4 7 1.0 5000.0 7.905138e-03 7.739137e-02
 2 -1 0 0 101   0  0.000000e+00  0.000000e+00  2.709951e+03  2.709951e+03 0.0 0.0 9.0
21 -1 0 0 103 101  0.000000e+00  0.000000e+00 -1.939250e+03  1.939250e+03 0.0 0.0 9.0
 2  1 1 2 103   0 -1.182516e+02  2.097453e+03  1.315820e+03  2.478845e+03 0.0022 0.0 9.0
22  1 1 2   0   0  1.182516e+02 -2.097453e+03 -5.451186e+02  2.170356e+03 0.0 0.0 9.0
#pdf 2 21 4.169155e-01 2.983461e-01 5000.0 1.279487e-01 2.512257e-01
</event>
<event>
4 7 1.0 5000.0 7.905138e-03 7.739137e-02
21 -1 0 0 103 101  0.000000e+00  0.000000e+00  3.754976e+03  3.754976e+03 0.0 0.0 9.0
 2 -1 0 0 101   0  0.000000e+00  0.000000e+00 -1.739044e+03  1.739044e+03 0.0 0.0 9.0
 2  1 1 2 103   0 -1.891451e+03  1.418459e+02 -8.328484e+02  2.071556e+03 0.0022 0.0 9.0
22  1 1 2   0   0  1.891451e+03 -1.418459e+02  2.848781e+03  3.422464e+03 0.0 0.0 9.0
#pdf 21 2 5.776886e-01 2.675452e-01 5000.0 9.106097e-04 5.364284e-02
</event>
<event>
4 7 1.0 5000.0 7.905138e-03 7.739137e-02
 2 -1 0 0 101   0  0.000000e+00  0.000000e+00  2.464579e+03  2.464579e+03 0.0 0.0 9.0
21 -1 0 0 103 101  0.000000e+00  0.000000e+00 -2.394754e+03  2.394754e+03 0.0 0.0 9.0
22  1 1 2   0   0  2.001294e+03  1.159027e+03  7.789914e+02  2.440358e+03 0.0 0.0 9.0
 2  1 1 2 103   0 -2.001294e+03 -1.159027e+03 -7.091671e+02  2.418975e+03 0.0022 0.0 9.0
#pdf 2 21 3.791659e-01 3.684237e-01 5000.0 1.619671e-01 1.725493e-01
</event>
<event>
4 7 1.0 5000.0 7.905138e-03 7.739137e-02
 2 -1 0 0 101   0  0.000000e+00  0.000000e+00  2.612002e+03  2.612002e+03 0.0 0.0 9.0
21 -1 0 0 103 101  0.000000e+00  0.000000e+00 -2.391335e+03  2.391335e+03 0.0 0.0 9.0
 2  1 1 2 103   0  3.169388e+01 -1.069668e+03  2.371068e+03  2.601376e+03 0.0022 0.0 9.0
22  1 1 2   0   0 -3.169388e+01  1.069668e+03 -2.150401e+03  2.401961e+03 0.0 0.0 9.0
#pdf 2 21 4.018465e-01 3.678977e-01 5000.0 1.409291e-01 1.730796e-01
</event>
<event>
4 7 1.0 5000.0 7.905138e-03 7.739137e-02
21 -1 0 0 103 101  0.000000e+00  0.000000e+00  2.599447e+03  2.599447e+03 0.0 0.0 9.0
 2 -1 0 0 101   0  0.000000e+00  0.000000e+00 -1.827914e+03  1.827914e+03 0.0 0.0 9.0
 2  1 1 2 103   0 -6.136547e+02  3.410617e+01  2.509635e+03  2.583796e+03 0.0022 0.0 9.0
22  1 1 2   0   0  6.136547e+02 -3.410617e+01 -1.738102e+03  1.843565e+03 0.0 0.0 9.0
#pdf 21 2 3.999149e-01 2.812176e-01 5000.0 1.049101e-02 4.533903e-02
</event>
<event>
4 7 1.0 5000.0 7.905138e-03 7.739137e-02
 2 -1 0 0 101   0  0.000000e+00  0.000000e+00  2.750423e+03  2.750423e+03 0.0 0.0 9.0
21 -1 0 0 103 101  0.000000e+00  0.000000e+00 -2.152554e+03  2.152554e+03 0.0 0.0 9.0
22  1 1 2   0   0  1.163046e+03 -2.075298e+03  8.135545e+02  2.514241e+03 0.0 0.0 9.0
 2  1 1 2 103   0 -1.163046e+03  2.075298e+03 -2.156849e+02  2.388736e+03 0.0022 0.0 9.0
#pdf 2 21 4.231420e-01 3.311621e-01 5000.0 1.228180e-01 2.124058e-01
</event>
<event>
4 7 1.0 5000.0 7.905138e-03 7.739137e-02
21 -1 0 0 103 101  0.000000e+00  0.000000e+00  2.482143e+03  2.482143e+03 0.0 0.0 9.0
 2 -1 0 0 101   0  0.000000e+00  0.000000e+00 -2.503571e+03  2.503571e+03 0.0 0.0 9.0
 2  1 1 2 103   0  1.008344e+03  8.902098e+02 -2.109541e+03  2.501878e+03 0.0022 0.0 9.0
22  1 1 2   0   0 -1.008344e+03 -8.902098e+02  2.088112e+03  2.483837e+03 0.0 0.0 9.0
#pdf 21 2 3.818682e-01 3.851648e-01 5000.0 1.316483e-02 1.263054e-02
</event>
<event>
4 7 1.0 5000.0 7.905138e-03 7.739137e-02
 2 -1 0 0 101   0  0.000000e+00  0.000000e+00  1.691581e+03  1.691581e+03 0.0 0.0 9.0
21 -1 0 0 103 101  0.000000e+00  0.000000e+00 -3.626807e+03  3.626807e+03 0.0 0.0 9.0
 2  1 1 2 103   0  1.453107e+03  7.703406e+02  1.020743e+03  1.935681e+03 0.0022 0.0 9.0
22  1 1 2   0   0 -1.453107e+03 -7.703406e+02 -2.955970e+03  3.382706e+03 0.0 0.0 9.0
#pdf 2 21 2.602432e-01 5.579703e-01 5000.0 2.999829e-01 4.316269e-02
</event>
<event>
4 7 1.0 5000.0 7.905138e-03 7.739137e-02
21 -1 0 0 103 101  0.000000e+00  0.000000e+00  2.697200e+03  2.697200e+03 0.0 0.0 9.0
 2 -1 0 0 101   0  0.000000e+00  0.000000e+00 -2.327410e+03  2.327410e+03 0.0 0.0 9.0
 2  1 1 2 103   0 -2.452171e+02  4.248667e+02 -2.278786e+03  2.330989e+03 0.0022 0.0 9.0
22  1 1 2   0   0  2.452171e+02 -4.248667e+02  2.648576e+03  2.693621e+03 0.0 0.0 9.0
#pdf 21 2 4.149538e-01 3.580631e-01 5000.0 8.669779e-03 1.766288e-02
</event>
<event>
4 7 1.0 5000.0 7.905138e-03 7.739137e-02
21 -1 0 0 103 101  0.000000e+00  0.000000e+00  1.546142e+03  1.546142e+03 0.0 0.0 9.0
 2 -1 0 0 101   0  0.000000e+00  0.000000e+00 -3.572100e+03  3.572100e+03 0.0 0.0 9.0
22  1 1 2   0   0 -1.799609e+03 -1.250996e+03 -8.937394e+01  2.193530e+03 0.0 0.0 9.0
 2  1 1 2 103   0  1.799609e+03  1.250996e+03 -1.936584e+03  2.924713e+03 0.0022 0.0 9.0
#pdf 21 2 2.378680e-01 5.495539e-01 5000.0 7.765624e-02 1.390889e-03
</event>
<event>
4 7 1.0 5000.0 7.905138e-03 7.739137e-02
21 -1 0 0 103 101  0.000000e+00  0.000000e+00  3.889629e+03  3.889629e+03 0.0 0.0 9.0
 2 -1 0 0 101   0  0.000000e+00  0.000000e+00 -1.536763e+03  1.536763e+03 0.0 0.0 9.0
22  1 1 2   0   0 -1.276349e+02 -8.538376e+02 -1.361978e+03  1.612549e+03 0.0 0.0 9.0
 2  1 1 2 103   0  1.276349e+02  8.538376e+02  3.714845e+03  3.813843e+03 0.0022 0.0 9.0
#pdf 21 2 5.984045e-01 2.364250e-01 5000.0 6.583514e-04 7.906098e-02
</event>
<event>
4 7 1.0 5000.0 7.905138e-03 7.739137e-02
 2 -1 0 0 101   0  0.000000e+00  0.000000e+00  2.330702e+03  2.330702e+03 0.0 0.0 9.0
21 -1 0 0 103 101  0.000000e+00  0.000000e+00 -2.709095e+03  2.709095e+03 0.0 0.0 9.0
22  1 1 2   0   0 -2.171347e+02  5.899877e+02 -2.628954e+03  2.703078e+03 0.0 0.0 9.0
 2  1 1 2 103   0  2.171347e+02 -5.899877e+02  2.250561e+03  2.336719e+03 0.0022 0.0 9.0
#pdf 2 21 3.585696e-01 4.167839e-01 5000.0 1.826322e-01 1.280587e-01
</event>
<event>
4 7 1.0 5000.0 7.905138e-03 7.739137e-02
21 -1 0 0 103 101  0.000000e+00  0.000000e+00  1.737901e+03  1.737901e+03 0.0 0.0 9.0
 2 -1 0 0 101   0  0.000000e+00  0.000000e+00 -3.446841e+03  3.446841e+03 0.0 0.0 9.0
 2  1 1 2 103   0 -2.233776e+03 -7.264086e+02 -1.261326e+02  2.352304e+03 0.0022 0.0 9.0
22  1 1 2   0   0  2.233776e+03  7.264086e+02 -1.582808e+03  2.832438e+03 0.0 0.0 9.0
#pdf 21 2 2.673694e-01 5.302833e-01 5000.0 5.375921e-02 1.842592e-03
</event>
<event>
4 7 1.0 5000.0 7.905138e-03 7.739137e-02
 2 -1 0 0 101   0  0.000000e+00  0.000000e+00  2.265020e+03  2.265020e+03 0.0 0.0 9.0
21 -1 0 0 103 101  0.000000e+00  0.000000e+00 -2.837786e+03  2.837786e+03 0.0 0.0 9.0
22  1 1 2   0   0 -1.355022e+03 -4.605773e+02  1.819633e+03  2.315012e+03 0.0 0.0 9.0
 2  1 1 2 103   0  1.355022e+03  4.605773e+02 -2.392400e+03  2.787793e+03 0.0022 0.0 9.0
#pdf 2 21 3.484646e-01 4.365825e-01 5000.0 1.933149e-01 1.122306e-01
</event>
<event>
4 7 1.0 5000.0 7.905138e-03 7.739137e-02
21 -1 0 0 103 101  0.000000e+00  0.000000e+00  1.833356e+03  1.833356e+03 0.0 0.0 9.0
 2 -1 0 0 101   0  0.000000e+00  0.000000e+00 -3.392548e+03  3.392548e+03 0.0 0.0 9.0
 2  1 1 2 103   0  1.734538e+03  1.329171e+03 -2.038792e+03  2.988644e+03 0.0022 0.0 9.0
22  1 1 2   0   0 -1.734538e+03 -1.329171e+03  4.796005e+02  2.237261e+03 0.0 0.0 9.0
#pdf 21 2 2.820548e-01 5.219304e-01 5000.0 4.487313e-02 2.074276e-03
</event>
<event>
4 7 1.0 5000.0 7.905138e-03 7.739137e-02
21 -1 0 0 103 101  0.000000e+00  0.000000e+00  2.445381e+03  2.445381e+03 0.0 0.0 9.0
 2 -1 0 0 101   0  0.000000e+00  0.000000e+00 -2.686168e+03  2.686168e+03 0.0 0.0 9.0
 2  1 1 2 103   0  2.203276e+03 -1.160259e+03 -7.277559e+02  2.594274e+03 0.0022 0.0 9.0
22  1 1 2   0   0 -2.203276e+03  1.160259e+03  4.869690e+02  2.537276e+03 0.0 0.0 9.0
#pdf 21 2 3.762125e-01 4.132567e-01 5000.0 1.412279e-02 8.858942e-03
</event>
<event>
4 7 1.0 5000.0 7.905138e-03 7.739137e-02
21 -1 0 0 103 101  0.000000e+00  0.000000e+00  2.855035e+03  2.855035e+03 0.0 0.0 9.0
 2 -1 0 0 101   0  0.000000e+00  0.000000e+00 -2.157855e+03  2.157855e+03 0.0 0.0 9.0
 2  1 1 2 103   0  4.932294e+02  1.362473e+03 -1.686415e+03  2.223421e+03 0.0022 0.0 9.0
22  1 1 2   0   0 -4.932294e+02 -1.362473e+03  2.383595e+03  2.789469e+03 0.0 0.0 9.0
#pdf 21 2 4.392362e-01 3.319777e-01 5000.0 6.353209e-03 2.434899e-02
</event>
<event>
4 7 1.0 5000.0 7.905138e-03 7.739137e-02
 2 -1 0 0 101   0  0.000000e+00  0.000000e+00  3.365813e+03  3.365813e+03 0.0 0.0 9.0
21 -1 0 0 103 101  0.000000e+00  0.000000e+00 -1.837543e+03  1.837543e+03 0.0 0.0 9.0
 2  1 1 2 103   0  4.822968e+02  2.427648e+03  1.017676e+03  2.676145e+03 0.0022 0.0 9.0
22  1 1 2   0   0 -4.822968e+02 -2.427648e+03  5.105944e+02  2.527211e+03 0.0 0.0 9.0
#pdf 2 21 5.178173e-01 2.826989e-01 5000.0 6.103560e-02 2.708340e-01
</event>
<event>
4 7 1.0 5000.0 7.905138e-03 7.739137e-02
21 -1 0 0 103 101  0.000000e+00  0.000000e+00  1.776989e+03  1.776989e+03 0.0 0.0 9.0
 2 -1 0 0 101   0  0.000000e+00  0.000000e+00 -3.495710e+03  3.495710e+03 0.0 0.0 9.0
 2  1 1 2 103   0 -2.011399e+03 -1.388797e+03 -1.374701e+03  2.804333e+03 0.0022 0.0 9.0
22  1 1 2   0   0  2.011399e+03  1.388797e+03 -3.440197e+02  2.468366e+03 0.0 0.0 9.0
#pdf 21 2 2.733829e-01 5.378015e-01 5000.0 4.992571e-02 1.651668e-03
</event>
<event>
4 7 1.0 5000.0 7.905138e-03 7.739137e-02
21 -1 0 0 103 101  0.000000e+00  0.000000e+00  2.799456e+03  2.799456e+03 0.0 0.0 9.0
 2 -1 0 0 101   0  0.000000e+00  0.000000e+00 -2.222691e+03  2.222691e+03 0.0 0.0 9.0
 2  1 1 2 103   0  1.991098e+03 -2.246586e+02  1.784005e+03  2.682837e+03 0.0022 0.0 9.0
22  1 1 2   0   0 -1.991098e+03  2.246586e+02 -1.207241e+03  2.339310e+03 0.0 0.0 9.0
#pdf 21 2 4.306855e-01 3.419525e-01 5000.0 7.088580e-03 2.154204e-02
</event>
<event>
4 7 1.0 5000.0 7.905138e-03 7.739137e-02
21 -1 0 0 103 101  0.000000e+00  0.000000e+00  1.344118e+03  1.344118e+03 0.0 0.0 9.0
 2 -1 0 0 101   0  0.000000e+00  0.000000e+00 -4.928413e+03  4.928413e+03 0.0 0.0 9.0
22  1 1 2   0   0  1.552367e+03 -9.325904e+02 -4.020715e+03  4.409730e+03 0.0 0.0 9.0
 2  1 1 2 103   0 -1.552367e+03  9.325904e+02  4.364204e+02  1.862802e+03 0.0022 0.0 9.0
#pdf 21 2 2.067874e-01 7.582174e-01 5000.0 1.151333e-01 3.025591e-05
</event>
<event>
4 7 1.0 5000.0 7.905138e-03 7.739137e-02
21 -1 0 0 103 101  0.000000e+00  0.000000e+00  2.803155e+03  2.803155e+03 0.0 0.0 9.0
 2 -1 0 0 101   0  0.000000e+00  0.000000e+00 -2.198371e+03  2.198371e+03 0.0 0.0 9.0
22  1 1 2   0   0 -1.428995e+03  1.731754e+03 -7.643872e+02  2.371769e+03 0.0 0.0 9.0
 2  1 1 2 103   0  1.428995e+03 -1.731754e+03  1.369171e+03  2.629758e+03 0.0022 0.0 9.0
#pdf 21 2 4.312547e-01 3.382110e-01 5000.0 7.037200e-03 2.255223e-02
</event>
<event>
4 7 1.0 5000.0 7.905138e-03 7.739137e-02
 2 -1 0 0 101   0  0.000000e+00  0.000000e+00  1.854362e+03  1.854362e+03 0.0 0.0 9.0
21 -1 0 0 103 101  0.000000e+00  0.000000e+00 -3.252373e+03  3.252373e+03 0.0 0.0 9.0
22  1 1 2   0   0  1.639935e+03  1.694506e+02  1.193447e+03  2.035293e+03 0.0 0.0 9.0
 2  1 1 2 103   0 -1.639935e+03 -1.694506e+02 -2.591458e+03  3.071442e+03 0.0022 0.0 9.0
#pdf 2 21 2.852864e-01 5.003651e-01 5000.0 2.675484e-01 7.025180e-02
</event>
<event>
4 7 1.0 5000.0 7.905138e-03 7.739137e-02
 2 -1 0 0 101   0  0.000000e+00  0.000000e+00  1.310523e+03  1.310523e+03 0.0 0.0 9.0
21 -1 0 0 103 101  0.000000e+00  0.000000e+00 -4.642555e+03  4.642555e+03 0.0 0.0 9.0
 2  1 1 2 103   0  5.026389e+02 -1.985298e+03 -3.325051e+03  3.905128e+03 0.0022 0.0 9.0
22  1 1 2   0   0 -5.026389e+02  1.985298e+03 -6.980829e+00  2.047951e+03 0.0 0.0 9.0
#pdf 2 21 2.016190e-01 7.142393e-01 5000.0 3.797965e-01 7.337513e-03
</event>
<event>
4 7 1.0 5000.0 7.905138e-03 7.739137e-02
 2 -1 0 0 101   0  0.000000e+00  0.000000e+00  2.390259e+03  2.390259e+03 0.0 0.0 9.0
21 -1 0 0 103 101  0.000000e+00  0.000000e+00 -2.738227e+03  2.738227e+03 0.0 0.0 9.0
22  1 1 2   0   0 -4.515530e+02  1.329588e+03  1.969499e+03  2.418808e+03 0.0 0.0 9.0
 2  1 1 2 103   0  4.515530e+02 -1.329588e+03 -2.317466e+03  2.709678e+03 0.0022 0.0 9.0
#pdf 2 21 3.677322e-01 4.212656e-01 5000.0 1.732465e-01 1.243495e-01
</event>
<event>
4 7 1.0 5000.0 7.905138e-03 7.739137e-02
21 -1 0 0 103 101  0.000000e+00  0.000000e+00  3.487342e+03  3.487342e+03 0.0 0.0 9.0
 2 -1 0 0 101   0  0.000000e+00  0.000000e+00 -1.723187e+03  1.723187e+03 0.0 0.0 9.0
22  1 1 2   0   0  5.953492e+02  9.840184e+02 -1.418664e+03  1.826292e+03 0.0 0.0 9.0
 2  1 1 2 103   0 -5.953492e+02 -9.840184e+02  3.182819e+03  3.384238e+03 0.0022 0.0 9.0
#pdf 21 2 5.365142e-01 2.651058e-01 5000.0 1.683085e-03 5.528294e-02
</event>
<event>
4 7 1.0 5000.0 7.905138e-03 7.739137e-02
 2 -1 0 0 101   0  0.000000e+00  0.000000e+00  3.228730e+03  3.228730e+03 0.0 0.0 9.0
21 -1 0 0 103 101  0.000000e+00  0.000000e+00 -1.929216e+03  1.929216e+03 0.0 0.0 9.0
 2  1 1 2 103   0 -1.543629e+03  4.704660e+02 -1.317594e+03  2.083310e+03 0.0022 0.0 9.0
22  1 1 2   0   0  1.543629e+03 -4.704660e+02  2.617108e+03  3.074635e+03 0.0 0.0 9.0
#pdf 2 21 4.967277e-01 2.968024e-01 5000.0 7.228936e-02 2.531248e-01
</event>
<event>
4 7 1.0 5000.0 7.905138e-03 7.739137e-02
 2 -1 0 0 101   0  0.000000e+00  0.000000e+00  3.814214e+03  3.814214e+03 0.0 0.0 9.0
21 -1 0 0 103 101  0.000000e+00  0.000000e+00 -1.660164e+03  1.660164e+03 0.0 0.0 9.0
22  1 1 2   0   0 -1.241945e+03  1.914500e+03 -7.643529e+01  2.283327e+03 0.0 0.0 9.0
 2  1 1 2 103   0  1.241945e+03 -1.914500e+03  2.230486e+03  3.191051e+03 0.0022 0.0 9.0
#pdf 2 21 5.868022e-01 2.554098e-01 5000.0 3.289920e-02 3.063746e-01
</event>
<event>
4 7 1.0 5000.0 7.905138e-03 7.739137e-02
 2 -1 0 0 101   0  0.000000e+00  0.000000e+00  1.590652e+03  1.590652e+03 0.0 0.0 9.0
21 -1 0 0 103 101  0.000000e+00  0.000000e+00 -3.939214e+03  3.939214e+03 0.0 0.0 9.0
22  1 1 2   0   0 -5.860356e+02 -2.292158e+03 -2.077390e+03  3.148488e+03 0.0 0.0 9.0
 2  1 1 2 103   0  5.860356e+02  2.292158e+03 -2.711720e+02  2.381378e+03 0.0022 0.0 9.0
#pdf 2 21 2.447157e-01 6.060329e-01 5000.0 3.207295e-01 2.714564e-02
</event>
<event>
4 7 1.0 5000.0 7.905138e-03 7.739137e-02
 2 -1 0 0 101   0  0.000000e+00  0.000000e+00  2.250894e+03  2.250894e+03 0.0 0.0 9.0
21 -1 0 0 103 101  0.000000e+00  0.000000e+00 -2.687254e+03  2.687254e+03 0.0 0.0 9.0
22  1 1 2   0   0 -7.452227e+02 -4.979288e+02 -2.517466e+03  2.672251e+03 0.0 0.0 9.0
 2  1 1 2 103   0  7.452227e+02  4.979288e+02  2.081106e+03  2.265897e+03 0.0022 0.0 9.0
#pdf 2 21 3.462914e-01 4.134237e-01 5000.0 1.956592e-01 1.308860e-01
</event>
<event>
4 7 1.0 5000.0 7.905138e-03 7.739137e-02
 2 -1 0 0 101   0  0.000000e+00  0.000000e+00  3.417901e+03  3.417901e+03 0.0 0.0 9.0
21 -1 0 0 103 101  0.000000e+00  0.000000e+00 -1.826805e+03  1.826805e+03 0.0 0.0 9.0
22  1 1 2   0   0  1.983212e+03  9.162369e+02 -4.773808e+02  2.236183e+03 0.0 0.0 9.0
 2  1 1 2 103   0 -1.983212e+03 -9.162369e+02  2.068477e+03  3.008524e+03 0.0022 0.0 9.0
#pdf 2 21 5.258310e-01 2.810470e-01 5000.0 5.711176e-02 2.729367e-01
</event>
<event>
4 7 1.0 5000.0 7.905138e-03 7.739137e-02
21 -1 0 0 103 101  0.000000e+00  0.000000e+00  1.329812e+03  1.329812e+03 0.0 0.0 9.0
 2 -1 0 0 101   0  0.000000e+00  0.000000e+00 -3.765530e+03  3.765530e+03 0.0 0.0 9.0
22  1 1 2   0   0 -1.468375e+03 -1.165655e+03 -2.608780e+03  3.212571e+03 0.0 0.0 9.0
 2  1 1 2 103   0  1.468375e+03  1.165655e+03  1.730614e+02  1.882771e+03 0.0022 0.0 9.0
#pdf 21 2 2.045864e-01 5.793123e-01 5000.0 1.184738e-01 8.881404e-04
</event>
<event>
4 7 1.0 5000.0 7.905138e-03 7.739137e-02
21 -1 0 0 103 101  0.000000e+00  0.000000e+00  2.208042e+03  2.208042e+03 0.0 0.0 9.0
 2 -1 0 0 101   0  0.000000e+00  0.000000e+00 -2.821056e+03  2.821056e+03 0.0 0.0 9.0
22  1 1 2   0   0 -1.342361e+03  7.453988e+02  1.675877e+03  2.272909e+03 0.0 0.0 9.0
 2  1 1 2 103   0  1.342361e+03 -7.453988e+02 -2.288891e+03  2.756189e+03 0.0022 0.0 9.0
#pdf 21 2 3.396987e-01 4.340086e-01 5000.0 2.214447e-02 6.794100e-03
</event>
<event>
4 7 1.0 5000.0 7.905138e-03 7.739137e-02
 2 -1 0 0 101   0  0.000000e+00  0.000000e+00  3.638295e+03  3.638295e+03 0.0 0.0 9.0
21 -1 0 0 103 101  0.000000e+00  0.000000e+00 -1.690644e+03  1.690644e+03 0.0 0.0 9.0
22  1 1 2   0   0 -8.065673e+02 -6.188459e+02 -1.456511e+03  1.776217e+03 0.0 0.0 9.0
 2  1 1 2 103   0  8.065673e+02  6.188459e+02  3.404162e+03  3.552723e+03 0.0022 0.0 9.0
#pdf 2 21 5.597377e-01 2.600991e-01 5000.0 4.247668e-02 3.001728e-01
</event>
<event>
4 7 1.0 5000.0 7.905138e-03 7.739137e-02
21 -1 0 0 103 101  0.000000e+00  0.000000e+00  2.141185e+03  2.141185e+03 0.0 0.0 9.0
 2 -1 0 0 101   0  0.000000e+00  0.000000e+00 -2.844783e+03  2.844783e+03 0.0 0.0 9.0
22  1 1 2   0   0  8.544028e+02 -1.244754e+03 -2.323915e+03  2.771281e+03 0.0 0.0 9.0
 2  1 1 2 103   0 -8.544028e+02  1.244754e+03  1.620316e+03  2.214687e+03 0.0022 0.0 9.0
#pdf 21 2 3.294130e-01 4.376590e-01 5000.0 2.512617e-02 6.483848e-03
</event>
<event>
4 7 1.0 5000.0 7.905138e-03 7.739137e-02
 2 -1 0 0 101   0  0.000000e+00  0.000000e+00  1.753728e+03  1.753728e+03 0.0 0.0 9.0
21 -1 0 0 103 101  0.000000e+00  0.000000e+00 -3.374295e+03  3.374295e+03 0.0 0.0 9.0
22  1 1 2   0   0 -1.361322e+03 -5.122394e+02 -2.865482e+03  3.213499e+03 0.0 0.0 9.0
 2  1 1 2 103   0  1.361322e+03  5.122394e+02  1.244916e+03  1.914524e+03 0.0022 0.0 9.0
#pdf 2 21 2.698043e-01 5.191222e-01 5000.0 2.874427e-01 6.038330e-02
</event>
<event>
4 7 1.0 5000.0 7.905138e-03 7.739137e-02
21 -1 0 0 103 101  0.000000e+00  0.000000e+00  3.243167e+03  3.243167e+03 0.0 0.0 9.0
 2 -1 0 0 101   0  0.000000e+00  0.000000e+00 -1.853456e+03  1.853456e+03 0.0 0.0 9.0
22  1 1 2   0   0 -2.034931e+02  1.232510e+03  2.887584e+03  3.146209e+03 0.0 0.0 9.0
 2  1 1 2 103   0  2.034931e+02 -1.232510e+03 -1.497874e+03  1.950414e+03 0.0022 0.0 9.0
#pdf 21 2 4.989488e-01 2.851471e-01 5000.0 2.859705e-03 4.320690e-02
</event>
<event>
4 7 1.0 5000.0 7.905138e-03 7.739137e-02
21 -1 0 0 103 101  0.000000e+00  0.000000e+00  2.057821e+03  2.057821e+03 0.0 0.0 9.0
 2 -1 0 0 101   0  0.000000e+00  0.000000e+00 -2.617448e+03  2.617448e+03 0.0 0.0 9.0
22  1 1 2   0   0  5.127787e+02  1.525972e+03 -1.963658e+03  2.539190e+03 0.0 0.0 9.0
 2  1 1 2 103   0 -5.127787e+02 -1.525972e+03  1.404031e+03  2.136079e+03 0.0022 0.0 9.0
#pdf 21 2 3.165878e-01 4.026843e-01 5000.0 2.939915e-02 1.013146e-02
</event>
<event>
4 7 1.0 5000.0 7.905138e-03 7.739137e-02
21 -1 0 0 103 101  0.000000e+00  0.000000e+00  1.420832e+03  1.420832e+03 0.0 0.0 9.0
 2 -1 0 0 101   0  0.000000e+00  0.000000e+00 -4.316856e+03  4.316856e+03 0.0 0.0 9.0
22  1 1 2   0   0  1.895033e+03 -1.477331e+03 -7.531073e+02  2.518100e+03 0.0 0.0 9.0
 2  1 1 2 103   0 -1.895033e+03  1.477331e+03 -2.142917e+03  3.219588e+03 0.0022 0.0 9.0
#pdf 21 2 2.185895e-01 6.641317e-01 5000.0 9.905034e-02 2.146105e-04
</event>
<event>
4 7 1.0 5000.0 7.905138e-03 7.739137e-02
21 -1 0 0 103 101  0.000000e+00  0.000000e+00  2.815341e+03  2.815341e+03 0.0 0.0 9.0
 2 -1 0 0 101   0  0.000000e+00  0.000000e+00 -2.174485e+03  2.174485e+03 0.0 0.0 9.0
 2  1 1 2 103   0  1.011532e+03  1.571890e+03  1.955039e+03  2.704850e+03 0.0022 0.0 9.0
22  1 1 2   0   0 -1.011532e+03 -1.571890e+03 -1.314183e+03  2.284976e+03 0.0 0.0 9.0
#pdf 21 2 4.331293e-01 3.345361e-01 5000.0 6.870777e-03 2.359579e-02
</event>
<event>
4 7 1.0 5000.0 7.905138e-03 7.739137e-02
21 -1 0 0 103 101  0.000000e+00  0.000000e+00  2.704202e+03  2.704202e+03 0.0 0.0 9.0
 2 -1 0 0 101   0  0.000000e+00  0.000000e+00 -2.084560e+03  2.084560e+03 0.0 0.0 9.0
 2  1 1 2 103   0 -9.540301e+02 -1.700712e+03  1.675732e+03  2.571123e+03 0.0022 0.0 9.0
22  1 1 2   0   0  9.540301e+02  1.700712e+03 -1.056090e+03  2.217639e+03 0.0 0.0 9.0
#pdf 21 2 4.160311e-01 3.207015e-01 5000.0 8.551797e-03 2.795166e-02
</event>
<event>
4 7 1.0 5000.0 7.905138e-03 7.739137e-02
21 -1 0 0 103 101  0.000000e+00  0.000000e+00  3.341917e+03  3.341917e+03 0.0 0.0 9.0
 2 -1 0 0 101   0  0.000000e+00  0.000000e+00 -1.922096e+03  1.922096e+03 0.0 0.0 9.0
 2  1 1 2 103   0  2.032793e+03 -1.209437e+03 -2.353438e+02  2.377051e+03 0.0022 0.0 9.0
22  1 1 2   0   0 -2.032793e+03  1.209437e+03  1.655164e+03  2.886962e+03 0.0 0.0 9.0
#pdf 21 2 5.141411e-01 2.957071e-01 5000.0 2.315563e-03 3.800065e-02
</event>
<event>
4 7 1.0 5000.0 7.905138e-03 7.739137e-02
21 -1 0 0 103 101  0.000000e+00  0.000000e+00  2.562809e+03  2.562809e+03 0.0 0.0 9.0
 2 -1 0 0 101   0  0.000000e+00  0.000000e+00 -2.408011e+03  2.408011e+03 0.0 0.0 9.0
 2  1 1 2 103   0  2.237870e+03 -8.153846e+02  7.836874e+02  2.507405e+03 0.0022 0.0 9.0
22  1 1 2   0   0 -2.237870e+03  8.153846e+02 -6.288897e+02  2.463416e+03 0.0 0.0 9.0
#pdf 21 2 3.942783e-01 3.704633e-01 5000.0 1.126101e-02 1.514846e-02
</event>
<event>
4 7 1.0 5000.0 7.905138e-03 7.739137e-02
21 -1 0 0 103 101  0.000000e+00  0.000000e+00  3.335517e+03  3.335517e+03 0.0 0.0 9.0
 2 -1 0 0 101   0  0.000000e+00  0.000000e+00 -2.028970e+03  2.028970e+03 0.0 0.0 9.0
22  1 1 2   0   0  6.308642e+02 -2.520739e+03  5.247097e+02  2.650931e+03 0.0 0.0 9.0
 2  1 1 2 103   0 -6.308642e+02  2.520739e+03  7.818374e+02  2.713555e+03 0.0022 0.0 9.0
#pdf 21 2 5.131564e-01 3.121492e-01 5000.0 2.347734e-03 3.105883e-02
</event>
<event>
4 7 1.0 5000.0 7.905138e-03 7.739137e-02
21 -1 0 0 103 101  0.000000e+00  0.000000e+00  3.873866e+03  3.873866e+03 0.0 0.0 9.0
 2 -1 0 0 101   0  0.000000e+00  0.000000e+00 -1.600182e+03  1.600182e+03 0.0 0.0 9.0
22  1 1 2   0   0 -2.284572e+03 -8.927491e+02  6.670601e+02  2.541897e+03 0.0 0.0 9.0
 2  1 1 2 103   0  2.284572e+03  8.927491e+02  1.606624e+03  2.932151e+03 0.0022 0.0 9.0
#pdf 21 2 5.959794e-01 2.461818e-01 5000.0 6.841506e-04 6.991122e-02
</event>
<event>
4 7 1.0 5000.0 7.905138e-03 7.739137e-02
21 -1 0 0 103 101  0.000000e+00  0.000000e+00  2.447246e+03  2.447246e+03 0.0 0.0 9.0
 2 -1 0 0 101   0  0.000000e+00  0.000000e+00 -2.559928e+03  2.559928e+03 0.0 0.0 9.0
22  1 1 2   0   0  7.554445e+02 -4.512924e+02  2.287416e+03  2.450843e+03 0.0 0.0 9.0
 2  1 1 2 103   0 -7.554445e+02  4.512924e+02 -2.400098e+03  2.556331e+03 0.0022 0.0 9.0
#pdf 21 2 3.764994e-01 3.938351e-01 5000.0 1.407305e-02 1.132390e-02
</event>
<event>
4 7 1.0 5000.0 7.905138e-03 7.739137e-02
21 -1 0 0 103 101  0.000000e+00  0.000000e+00  3.371372e+03  3.371372e+03 0.0 0.0 9.0
 2 -1 0 0 101   0  0.000000e+00  0.000000e+00 -1.971668e+03  1.971668e+03 0.0 0.0 9.0
 2  1 1 2 103   0 -1.999202e+03 -1.220051e+03  1.816770e+03  2.964116e+03 0.0022 0.0 9.0
22  1 1 2   0   0  1.999202e+03  1.220051e+03 -4.170650e+02  2.378924e+03 0.0 0.0 9.0
#pdf 21 2 5.186727e-01 3.033335e-01 5000.0 2.172061e-03 3.460177e-02
</event>
<event>
4 7 1.0 5000.0 7.905138e-03 7.739137e-02
 2 -1 0 0 101   0  0.000000e+00  0.000000e+00  2.767805e+03  2.767805e+03 0.0 0.0 9.0
21 -1 0 0 103 101  0.000000e+00  0.000000e+00 -2.219198e+03  2.219198e+03 0.0 0.0 9.0
 2  1 1 2 103   0 -1.015086e+03 -1.810960e+03  1.636205e+03  2.643320e+03 0.0022 0.0 9.0
22  1 1 2   0   0  1.015086e+03  1.810960e+03 -1.087598e+03  2.343682e+03 0.0 0.0 9.0
#pdf 2 21 4.258161e-01 3.414150e-01 5000.0 1.206578e-01 2.009768e-01
</event>
<event>
4 7 1.0 5000.0 7.905138e-03 7.739137e-02
21 -1 0 0 103 101  0.000000e+00  0.000000e+00  2.214890e+03  2.214890e+03 0.0 0.0 9.0
 2 -1 0 0 101   0  0.000000e+00  0.000000e+00 -2.458187e+03  2.458187e+03 0.0 0.0 9.0
22  1 1 2   0   0  1.421666e+03 -4.568381e+02 -1.917064e+03  2.430014e+03 0.0 0.0 9.0
 2  1 1 2 103   0 -1.421666e+03  4.568381e+02  1.673766e+03  2.243062e+03 0.0022 0.0 9.0
#pdf 21 2 3.407522e-01 3.781826e-01 5000.0 2.186065e-02 1.378360e-02
</event>
<event>
4 7 1.0 5000.0 7.905138e-03 7.739137e-02
 2 -1 0 0 101   0  0.000000e+00  0.000000e+00  1.935932e+03  1.935932e+03 0.0 0.0 9.0
21 -1 0 0 103 101  0.000000e+00  0.000000e+00 -3.263045e+03  3.263045e+03 0.0 0.0 9.0
22  1 1 2   0   0 -1.020332e+03 -2.212125e+03 -1.303178e+03  2.762761e+03 0.0 0.0 9.0
 2  1 1 2 103   0  1.020332e+03  2.212125e+03 -2.393512e+01  2.436216e+03 0.0022 0.0 9.0
#pdf 2 21 2.978357e-01 5.020069e-01 5000.0 2.518526e-01 6.934557e-02
</event>
<event>
4 7 1.0 5000.0 7.905138e-03 7.739137e-02
 2 -1 0 0 101   0  0.000000e+00  0.000000e+00  2.322202e+03  2.322202e+03 0.0 0.0 9.0
21 -1 0 0 103 101  0.000000e+00  0.000000e+00 -2.931036e+03  2.931036e+03 0.0 0.0 9.0
22  1 1 2   0   0 -6.449339e+02 -5.040063e+02 -2.798418e+03  2.915666e+03 0.0 0.0 9.0
 2  1 1 2 103   0  6.449339e+02  5.040063e+02  2.189584e+03  2.337572e+03 0.0022 0.0 9.0
#pdf 2 21 3.572618e-01 4.509286e-01 5000.0 1.839947e-01 1.015971e-01
</event>
<event>
4 7 1.0 5000.0 7.905138e-03 7.739137e-02
21 -1 0 0 103 101  0.000000e+00  0.000000e+00  3.860268e+03  3.860268e+03 0.0 0.0 9.0
 2 -1 0 0 101   0  0.000000e+00  0.000000e+00 -1.660272e+03  1.660272e+03 0.0 0.0 9.0
22  1 1 2   0   0  1.891697e+03  1.180271e+03  2.407260e+03  3.281228e+03 0.0 0.0 9.0
 2  1 1 2 103   0 -1.891697e+03 -1.180271e+03 -2.072647e+02  2.239311e+03 0.0022 0.0 9.0
#pdf 21 2 5.938873e-01 2.554265e-01 5000.0 7.071859e-04 6.238382e-02
</event>
<event>
4 7 1.0 5000.0 7.905138e-03 7.739137e-02
 2 -1 0 0 101   0  0.000000e+00  0.000000e+00  1.959597e+03  1.959597e+03 0.0 0.0 9.0
21 -1 0 0 103 101  0.000000e+00  0.000000e+00 -3.138610e+03  3.138610e+03 0.0 0.0 9.0
 2  1 1 2 103   0  1.607282e+03  1.305123e+03  8.137098e+02  2.224596e+03 0.0022 0.0 9.0
22  1 1 2   0   0 -1.607282e+03 -1.305123e+03 -1.992722e+03  2.873612e+03 0.0 0.0 9.0
#pdf 2 21 3.014765e-01 4.828630e-01 5000.0 2.473903e-01 8.043857e-02
</event>
<event>
4 7 1.0 5000.0 7.905138e-03 7.739137e-02
 2 -1 0 0 101   0  0.000000e+00  0.000000e+00  4.436809e+03  4.436809e+03 0.0 0.0 9.0
21 -1 0 0 103 101  0.000000e+00  0.000000e+00 -1.446220e+03  1.446220e+03 0.0 0.0 9.0
22  1 1 2   0   0  2.147984e+03 -4.204621e+02  2.976025e+03  3.694232e+03 0.0 0.0 9.0
 2  1 1 2 103   0 -2.147984e+03  4.204621e+02  1.456393e+01  2.188798e+03 0.0022 0.0 9.0
#pdf 2 21 6.825860e-01 2.224954e-01 5000.0 1.127358e-02 3.509950e-01
</event>
<event>
4 7 1.0 5000.0 7.905138e-03 7.739137e-02
21 -1 0 0 103 101  0.000000e+00  0.000000e+00  2.094131e+03  2.094131e+03 0.0 0.0 9.0
 2 -1 0 0 101   0  0.000000e+00  0.000000e+00 -2.482155e+03  2.482155e+03 0.0 0.0 9.0
 2  1 1 2 103   0 -1.062600e+03 -2.006451e+03 -4.021173e+02  2.305789e+03 0.0022 0.0 9.0
22  1 1 2   0   0  1.062600e+03  2.006451e+03  1.409297e+01  2.270498e+03 0.0 0.0 9.0
#pdf 21 2 3.221740e-01 3.818701e-01 5000.0 2.745234e-02 1.316451e-02
</event>
<event>
4 7 1.0 5000.0 7.905138e-03 7.739137e-02
 2 -1 0 0 101   0  0.000000e+00  0.000000e+00  3.723362e+03  3.723362e+03 0.0 0.0 9.0
21 -1 0 0 103 101  0.000000e+00  0.000000e+00 -1.752133e+03  1.752133e+03 0.0 0.0 9.0
22  1 1 2   0   0 -3.537108e+02 -2.497595e+03  1.415347e+03  2.892455e+03 0.0 0.0 9.0
 2  1 1 2 103   0  3.537108e+02  2.497595e+03  5.558817e+02  2.583040e+03 0.0022 0.0 9.0
#pdf 2 21 5.728249e-01 2.695590e-01 5000.0 3.761403e-02 2.877626e-01
</event>
<event>
4 7 1.0 5000.0 7.905138e-03 7.739137e-02
21 -1 0 0 103 101  0.000000e+00  0.000000e+00  3.612790e+03  3.612790e+03 0.0 0.0 9.0
 2 -1 0 0 101   0  0.000000e+00  0.000000e+00 -1.980469e+03  1.980469e+03 0.0 0.0 9.0
 2  1 1 2 103   0 -8.756259e+02  1.355221e+03 -1.414406e+03  2.145667e+03 0.0022 0.0 9.0
22  1 1 2   0   0  8.756259e+02 -1.355221e+03  3.046727e+03  3.447592e+03 0.0 0.0 9.0
#pdf 21 2 5.558139e-01 3.046876e-01 5000.0 1.269213e-03 3.404082e-02
</event>
<event>
4 7 1.0 5000.0 7.905138e-03 7.739137e-02
 2 -1 0 0 101   0  0.000000e+00  0.000000e+00  2.974060e+03  2.974060e+03 0.0 0.0 9.0
21 -1 0 0 103 101  0.000000e+00  0.000000e+00 -1.601739e+03  1.601739e+03 0.0 0.0 9.0
 2  1 1 2 103   0 -1.917941e+03 -3.598102e+02  1.710935e+03  2.595238e+03 0.0022 0.0 9.0
22  1 1 2   0   0  1.917941e+03  3.598102e+02 -3.386146e+02  1.980561e+03 0.0 0.0 9.0
#pdf 2 21 4.575476e-01 2.464214e-01 5000.0 9.692792e-02 3.184389e-01
</event>
<event>
4 7 1.0 5000.0 7.905138e-03 7.739137e-02
 2 -1 0 0 101   0  0.000000e+00  0.000000e+00  3.056511e+03  3.056511e+03 0.0 0.0 9.0
21 -1 0 0 103 101  0.000000e+00  0.000000e+00 -1.998515e+03  1.998515e+03 0.0 0.0 9.0
22  1 1 2   0   0  1.043288e+03  1.629400e+03  2.101715e+03  2.856676e+03 0.0 0.0 9.0
 2  1 1 2 103   0 -1.043288e+03 -1.629400e+03 -1.043719e+03  2.198350e+03 0.0022 0.0 9.0
#pdf 2 21 4.702324e-01 3.074639e-01 5000.0 8.840443e-02 2.401110e-01
</event>
<event>
4 7 1.0 5000.0 7.905138e-03 7.739137e-02
21 -1 0 0 103 101  0.000000e+00  0.000000e+00  3.618467e+03  3.618467e+03 0.0 0.0 9.0
 2 -1 0 0 101   0  0.000000e+00  0.000000e+00 -1.753919e+03  1.753919e+03 0.0 0.0 9.0
 2  1 1 2 103   0  5.489817e+02 -4.973123e+02 -1.635174e+03  1.795131e+03 0.0022 0.0 9.0
22  1 1 2   0   0 -5.489817e+02  4.973123e+02  3.499722e+03  3.577255e+03 0.0 0.0 9.0
#pdf 21 2 5.566872e-01 2.698337e-01 5000.0 1.253160e-03 5.215206e-02
</event>
<event>
4 7 1.0 5000.0 7.905138e-03 7.739137e-02
21 -1 0 0 103 101  0.000000e+00  0.000000e+00  2.851622e+03  2.851622e+03 0.0 0.0 9.0
 2 -1 0 0 101   0  0.000000e+00  0.000000e+00 -2.121885e+03  2.121885e+03 0.0 0.0 9.0
 2  1 1 2 103   0 -1.397339e+03 -8.076569e+02  2.241505e+03  2.762103e+03 0.0022 0.0 9.0
22  1 1 2   0   0  1.397339e+03  8.076569e+02 -1.511768e+03  2.211404e+03 0.0 0.0 9.0
#pdf 21 2 4.387111e-01 3.264439e-01 5000.0 6.396509e-03 2.605555e-02
</event>
<event>
4 7 1.0 5000.0 7.905138e-03 7.739137e-02
21 -1 0 0 103 101  0.000000e+00  0.000000e+00  1.589338e+03  1.589338e+03 0.0 0.0 9.0
 2 -1 0 0 101   0  0.000000e+00  0.000000e+00 -4.059562e+03  4.059562e+03 0.0 0.0 9.0
 2  1 1 2 103   0  2.254513e+03 -9.469693e+02 -1.999402e+03  3.158669e+03 0.0022 0.0 9.0
22  1 1 2   0   0 -2.254513e+03  9.469693e+02 -4.708209e+02  2.490231e+03 0.0 0.0 9.0
#pdf 21 2 2.445136e-01 6.245480e-01 5000.0 7.140702e-02 4.295485e-04
</event>
<event>
4 7 1.0 5000.0 7.905138e-03 7.739137e-02
 2 -1 0 0 101   0  0.000000e+00  0.000000e+00  2.062018e+03  2.062018e+03 0.0 0.0 9.0
21 -1 0 0 103 101  0.000000e+00  0.000000e+00 -3.050612e+03  3.050612e+03 0.0 0.0 9.0
 2  1 1 2 103   0 -1.061590e+03  1.187011e+03 -2.469209e+03  2.938190e+03 0.0022 0.0 9.0
22  1 1 2   0   0  1.061590e+03 -1.187011e+03  1.480615e+03  2.174440e+03 0.0 0.0 9.0
#pdf 2 21 3.172336e-01 4.693249e-01 5000.0 2.284869e-01 8.899676e-02
</event>
<event>
4 7 1.0 5000.0 7.905138e-03 7.739137e-02
 2 -1 0 0 101   0  0.000000e+00  0.000000e+00  3.142048e+03  3.142048e+03 0.0 0.0 9.0
21 -1 0 0 103 101  0.000000e+00  0.000000e+00 -1.526975e+03  1.526975e+03 0.0 0.0 9.0
 2  1 1 2 103   0  2.022803e+03  5.895634e+02  1.693853e+02  2.113767e+03 0.0022 0.0 9.0
22  1 1 2   0   0 -2.022803e+03 -5.895634e+02  1.445687e+03  2.555256e+03 0.0 0.0 9.0
#pdf 2 21 4.833919e-01 2.349192e-01 5000.0 8.011656e-02 3.339878e-01
</event>
<event>
4 7 1.0 5000.0 7.905138e-03 7.739137e-02
 2 -1 0 0 101   0  0.000000e+00  0.000000e+00  2.857991e+03  2.857991e+03 0.0 0.0 9.0
21 -1 0 0 103 101  0.000000e+00  0.000000e+00 -2.224477e+03  2.224477e+03 0.0 0.0 9.0
22  1 1 2   0   0 -6.549097e+02  5.575264e+02 -2.072061e+03  2.243475e+03 0.0 0.0 9.0
 2  1 1 2 103   0  6.549097e+02 -5.575264e+02  2.705575e+03  2.838993e+03 0.0022 0.0 9.0
#pdf 2 21 4.396909e-01 3.422272e-01 5000.0 1.098690e-01 2.000857e-01
</event>
<event>
4 7 1.0 5000.0 7.905138e-03 7.739137e-02
21 -1 0 0 103 101  0.000000e+00  0.000000e+00  1.831827e+03  1.831827e+03 0.0 0.0 9.0
 2 -1 0 0 101   0  0.000000e+00  0.000000e+00 -3.260931e+03  3.260931e+03 0.0 0.0 9.0
22  1 1 2   0   0  1.521564e+03 -1.822451e+02  1.269118e+03  1.989731e+03 0.0 0.0 9.0
 2  1 1 2 103   0 -1.521564e+03  1.822451e+02 -2.698222e+03  3.103027e+03 0.0022 0.0 9.0
#pdf 21 2 2.818195e-01 5.016817e-01 5000.0 4.500350e-02 2.753431e-03
</event>
<event>
4 7 1.0 5000.0 7.905138e-03 7.739137e-02
21 -1 0 0 103 101  0.000000e+00  0.000000e+00  2.035254e+03  2.035254e+03 0.0 0.0 9.0
 2 -1 0 0 101   0  0.000000e+00  0.000000e+00 -2.487490e+03  2.487490e+03 0.0 0.0 9.0
22  1 1 2   0   0 -2.200566e+01 -1.806914e+03  1.121251e+03  2.126647e+03 0.0 0.0 9.0
 2  1 1 2 103   0  2.200566e+01  1.806914e+03 -1.573487e+03  2.396098e+03 0.0022 0.0 9.0
#pdf 21 2 3.131160e-01 3.826908e-01 5000.0 3.068903e-02 1.302973e-02
</event>
<event>
4 7 1.0 5000.0 7.905138e-03 7.739137e-02
21 -1 0 0 103 101  0.000000e+00  0.000000e+00  1.785805e+03  1.785805e+03 0.0 0.0 9.0
 2 -1 0 0 101   0  0.000000e+00  0.000000e+00 -3.543503e+03  3.543503e+03 0.0 0.0 9.0
 2  1 1 2 103   0  7.770568e+02 -1.598449e+03  1.006878e+03  2.042709e+03 0.0022 0.0 9.0
22  1 1 2   0   0 -7.770568e+02  1.598449e+03 -2.764575e+03  3.286599e+03 0.0 0.0 9.0
#pdf 21 2 2.747393e-01 5.451542e-01 5000.0 4.910074e-02 1.484733e-03
</event>
<event>
4 7 1.0 5000.0 7.905138e-03 7.739137e-02
 2 -1 0 0 101   0  0.000000e+00  0.000000e+00  2.359559e+03  2.359559e+03 0.0 0.0 9.0
21 -1 0 0 103 101  0.000000e+00  0.000000e+00 -2.868220e+03  2.868220e+03 0.0 0.0 9.0
22  1 1 2   0   0 -1.390032e+03  1.192175e+03 -2.110912e+03  2.794534e+03 0.0 0.0 9.0
 2  1 1 2 103   0  1.390032e+03 -1.192175e+03  1.602252e+03  2.433245e+03 0.0022 0.0 9.0
#pdf 2 21 3.630092e-01 4.412646e-01 5000.0 1.780499e-01 1.086836e-01
</event>
<event>
4 7 1.0 5000.0 7.905138e-03 7.739137e-02
21 -1 0 0 103 101  0.000000e+00  0.000000e+00  2.334533e+03  2.334533e+03 0.0 0.0 9.0
 2 -1 0 0 101   0  0.000000e+00  0.000000e+00 -2.671151e+03  2.671151e+03 0.0 0.0 9.0
22  1 1 2   0   0  4.311113e+02  1.048281e+03 -2.398473e+03  2.652814e+03 0.0 0.0 9.0
 2  1 1 2 103   0 -4.311113e+02 -1.048281e+03  2.061855e+03  2.352870e+03 0.0022 0.0 9.0
#pdf 21 2 3.591589e-01 4.109463e-01 5000.0 1.742706e-02 9.123208e-03
</event>
<event>
4 7 1.0 5000.0 7.905138e-03 7.739137e-02
21 -1 0 0 103 101  0.000000e+00  0.000000e+00  2.122400e+03  2.122400e+03 0.0 0.0 9.0
 2 -1 0 0 101   0  0.000000e+00  0.000000e+00 -2.942749e+03  2.942749e+03 0.0 0.0 9.0
 2  1 1 2 103   0  7.368540e+02 -1.799815e+03  1.180348e+03  2.274974e+03 0.0022 0.0 9.0
22  1 1 2   0   0 -7.368540e+02  1.799815e+03 -2.000698e+03  2.790175e+03 0.0 0.0 9.0
#pdf 21 2 3.265231e-01 4.527307e-01 5000.0 2.603033e-02 5.324994e-03
</event>
<event>
4 7 1.0 5000.0 7.905138e-03 7.739137e-02
21 -1 0 0 103 101  0.000000e+00  0.000000e+00  2.467821e+03  2.467821e+03 0.0 0.0 9.0
 2 -1 0 0 101   0  0.000000e+00  0.000000e+00 -2.562290e+03  2.562290e+03 0.0 0.0 9.0
 2  1 1 2 103   0  4.206924e+02  1.500435e+03  1.926686e+03  2.477984e+03 0.0022 0.0 9.0
22  1 1 2   0   0 -4.206924e+02 -1.500435e+03 -2.021155e+03  2.552127e+03 0.0 0.0 9.0
#pdf 21 2 3.796648e-01 3.941985e-01 5000.0 1.353219e-02 1.127231e-02
</event>
<event>
4 7 1.0 5000.0 7.905138e-03 7.739137e-02
21 -1 0 0 103 101  0.000000e+00  0.000000e+00  2.938117e+03  2.938117e+03 0.0 0.0 9.0
 2 -1 0 0 101   0  0.000000e+00  0.000000e+00 -1.851196e+03  1.851196e+03 0.0 0.0 9.0
 2  1 1 2 103   0  7.569671e+02 -2.066838e+03 -2.480439e+02  2.215027e+03 0.0022 0.0 9.0
22  1 1 2   0   0 -7.569671e+02  2.066838e+03  1.334964e+03  2.574286e+03 0.0 0.0 9.0
#pdf 21 2 4.520179e-01 2.847995e-01 5000.0 5.374848e-03 4.339016e-02
</event>
<event>
4 7 1.0 5000.0 7.905138e-03 7.739137e-02
 2 -1 0 0 101   0  0.000000e+00  0.000000e+00  3.464591e+03  3.464591e+03 0.0 0.0 9.0
21 -1 0 0 103 101  0.000000e+00  0.000000e+00 -1.805273e+03  1.805273e+03 0.0 0.0 9.0
22  1 1 2   0   0  1.633132e+03  1.721168e+03  1.662593e+03  2.897197e+03 0.0 0.0 9.0
 2  1 1 2 103   0 -1.633132e+03 -1.721168e+03 -3.275271e+00  2.372667e+03 0.0022 0.0 9.0
#pdf 2 21 5.330140e-01 2.777343e-01 5000.0 5.374587e-02 2.771761e-01
</event>
<event>
4 7 1.0 5000.0 7.905138e-03 7.739137e-02
 2 -1 0 0 101   0  0.000000e+00  0.000000e+00  1.411418e+03  1.411418e+03 0.0 0.0 9.0
21 -1 0 0 103 101  0.000000e+00  0.000000e+00 -4.214582e+03  4.214582e+03 0.0 0.0 9.0
22  1 1 2   0   0  1.094408e+03 -2.179446e+03 -1.368483e+03  2.796508e+03 0.0 0.0 9.0
 2  1 1 2 103   0 -1.094408e+03  2.179446e+03 -1.434681e+03  2.829491e+03 0.0022 0.0 9.0
#pdf 2 21 2.171412e-01 6.483972e-01 5000.0 3.583359e-01 1.710684e-02
</event>
<event>
4 7 1.0 5000.0 7.905138e-03 7.739137e-02
21 -1 0 0 103 101  0.000000e+00  0.000000e+00  1.286991e+03  1.286991e+03 0.0 0.0 9.0
 2 -1 0 0 101   0  0.000000e+00  0.000000e+00 -4.296419e+03  4.296419e+03 0.0 0.0 9.0
22  1 1 2   0   0  2.158826e+03  2.300687e+02 -2.577149e+03  3.369742e+03 0.0 0.0 9.0
 2  1 1 2 103   0 -2.158826e+03 -2.300687e+02 -4.322783e+02  2.213668e+03 0.0022 0.0 9.0
#pdf 21 2 1.979986e-01 6.609875e-01 5000.0 1.291311e-01 2.276976e-04
</event>
<event>
4 7 1.0 5000.0 7.905138e-03 7.739137e-02
 2 -1 0 0 101   0  0.000000e+00  0.000000e+00  3.279810e+03  3.279810e+03 0.0 0.0 9.0
21 -1 0 0 103 101  0.000000e+00  0.000000e+00 -1.870985e+03  1.870985e+03 0.0 0.0 9.0
22  1 1 2   0   0 -1.067609e+03  9.124299e+02 -1.417114e+03  1.995126e+03 0.0 0.0 9.0
 2  1 1 2 103   0  1.067609e+03 -9.124299e+02  2.825939e+03  3.155669e+03 0.0022 0.0 9.0
#pdf 2 21 5.045862e-01 2.878439e-01 5000.0 6.793845e-02 2.643132e-01
</event>
<event>
4 7 1.0 5000.0 7.905138e-03 7.739137e-02
21 -1 0 0 103 101  0.000000e+00  0.000000e+00  2.679065e+03  2.679065e+03 0.0 0.0 9.0
 2 -1 0 0 101   0  0.000000e+00  0.000000e+00 -2.304955e+03  2.304955e+03 0.0 0.0 9.0
22  1 1 2   0   0 -1.792038e+03  1.513016e+03  1.010662e+03  2.553831e+03 0.0 0.0 9.0
 2  1 1 2 103   0  1.792038e+03 -1.513016e+03 -6.365521e+02  2.430188e+03 0.0022 0.0 9.0
#pdf 21 2 4.121638e-01 3.546085e-01 5000.0 8.982951e-03 1.843415e-02
</event>
<event>
4 7 1.0 5000.0 7.905138e-03 7.739137e-02
21 -1 0 0 103 101  0.000000e+00  0.000000e+00  1.600620e+03  1.600620e+03 0.0 0.0 9.0
 2 -1 0 0 101   0  0.000000e+00  0.000000e+00 -4.039248e+03  4.039248e+03 0.0 0.0 9.0
 2  1 1 2 103   0  1.214921e+03  2.068321e+03 -2.839572e+02  2.415495e+03 0.0022 0.0 9.0
22  1 1 2   0   0 -1.214921e+03 -2.068321e+03 -2.154671e+03  3.224374e+03 0.0 0.0 9.0
#pdf 21 2 2.462493e-01 6.214228e-01 5000.0 6.985447e-02 4.525974e-04
</event>
<event>
4 7 1.0 5000.0 7.905138e-03 7.739137e-02
 2 -1 0 0 101   0  0.000000e+00  0.000000e+00  2.647739e+03  2.647739e+03 0.0 0.0 9.0
21 -1 0 0 103 101  0.000000e+00  0.000000e+00 -2.328791e+03  2.328791e+03 0.0 0.0 9.0
 2  1 1 2 103   0  1.497844e+03 -7.164662e+02  2.009671e+03  2.606845e+03 0.0022 0.0 9.0
22  1 1 2   0   0 -1.497844e+03  7.164662e+02 -1.690724e+03  2.369685e+03 0.0 0.0 9.0
#pdf 2 21 4.073444e-01 3.582755e-01 5000.0 1.360988e-01 1.829380e-01
</event>
<event>
4 7 1.0 5000.0 7.905138e-03 7.739137e-02
21 -1 0 0 103 101  0.000000e+00  0.000000e+00  2.887444e+03  2.887444e+03 0.0 0.0 9.0
 2 -1 0 0 101   0  0.000000e+00  0.000000e+00 -2.928030e+03  2.928030e+03 0.0 0.0 9.0
22  1 1 2   0   0  2.400251e+03  1.641005e+03  2.017512e-01  2.907594e+03 0.0 0.0 9.0
 2  1 1 2 103   0 -2.400251e+03 -1.641005e+03 -4.078768e+01  2.907880e+03 0.0022 0.0 9.0
#pdf 21 2 4.442222e-01 4.504661e-01 5000.0 5.949795e-03 5.484220e-03
</event>
<event>
4 7 1.0 5000.0 7.905138e-03 7.739137e-02
 2 -1 0 0 101   0  0.000000e+00  0.000000e+00  3.100486e+03  3.100486e+03 0.0 0.0 9.0
21 -1 0 0 103 101  0.000000e+00  0.000000e+00 -1.977851e+03  1.977851e+03 0.0 0.0 9.0
22  1 1 2   0   0  1.987168e+03 -6.240760e+00  2.076443e+03  2.874107e+03 0.0 0.0 9.0
 2  1 1 2 103   0 -1.987168e+03  6.240760e+00 -9.538086e+02  2.204230e+03 0.0022 0.0 9.0
#pdf 2 21 4.769978e-01 3.042848e-01 5000.0 8.407155e-02 2.439607e-01
</event>
<event>
4 7 1.0 5000.0 7.905138e-03 7.739137e-02
21 -1 0 0 103 101  0.000000e+00  0.000000e+00  2.343942e+03  2.343942e+03 0.0 0.0 9.0
 2 -1 0 0 101   0  0.000000e+00  0.000000e+00 -2.733047e+03  2.733047e+03 0.0 0.0 9.0
22  1 1 2   0   0  2.220227e+02  4.840833e+02 -2.676215e+03  2.728691e+03 0.0 0.0 9.0
 2  1 1 2 103   0 -2.220227e+02 -4.840833e+02  2.287110e+03  2.348298e+03 0.0022 0.0 9.0
#pdf 21 2 3.606065e-01 4.204687e-01 5000.0 1.712092e-02 8.081820e-03
</event>
<event>
4 7 1.0 5000.0 7.905138e-03 7.739137e-02
21 -1 0 0 103 101  0.000000e+00  0.000000e+00  1.623329e+03  1.623329e+03 0.0 0.0 9.0
 2 -1 0 0 101   0  0.000000e+00  0.000000e+00 -3.885097e+03  3.885097e+03 0.0 0.0 9.0
 2  1 1 2 103   0  1.929327e+03  9.694849e+01 -2.890789e+03  3.476833e+03 0.0022 0.0 9.0
22  1 1 2   0   0 -1.929327e+03 -9.694849e+01  6.290212e+02  2.031593e+03 0.0 0.0 9.0
#pdf 21 2 2.497429e-01 5.977072e-01 5000.0 6.694787e-02 6.656743e-04
</event>
<event>
4 7 1.0 5000.0 7.905138e-03 7.739137e-02
 2 -1 0 0 101   0  0.000000e+00  0.000000e+00  2.181578e+03  2.181578e+03 0.0 0.0 9.0
21 -1 0 0 103 101  0.000000e+00  0.000000e+00 -2.860864e+03  2.860864e+03 0.0 0.0 9.0
22  1 1 2   0   0  4.229304e+02 -2.077586e+03 -1.673149e+03  2.700863e+03 0.0 0.0 9.0
 2  1 1 2 103   0 -4.229304e+02  2.077586e+03  9.938625e+02  2.341580e+03 0.0022 0.0 9.0
#pdf 2 21 3.356274e-01 4.401330e-01 5000.0 2.073848e-01 1.095353e-01
</event>
<event>
4 7 1.0 5000.0 7.905138e-03 7.739137e-02
21 -1 0 0 103 101  0.000000e+00  0.000000e+00  3.171328e+03  3.171328e+03 0.0 0.0 9.0
 2 -1 0 0 101   0  0.000000e+00  0.000000e+00 -1.423110e+03  1.423110e+03 0.0 0.0 9.0
 2  1 1 2 103   0  1.046812e+03  5.924181e+02  2.767651e+03  3.017726e+03 0.0022 0.0 9.0
22  1 1 2   0   0 -1.046812e+03 -5.924181e+02 -1.019433e+03  1.576711e+03 0.0 0.0 9.0
#pdf 21 2 4.878966e-01 2.189399e-01 5000.0 3.326123e-03 9.860674e-02
</event>
<event>
4 7 1.0 5000.0 7.905138e-03 7.739137e-02
 2 -1 0 0 101   0  0.000000e+00  0.000000e+00  2.428223e+03  2.428223e+03 0.0 0.0 9.0
21 -1 0 0 103 101  0.000000e+00  0.000000e+00 -2.512763e+03  2.512763e+03 0.0 0.0 9.0
 2  1 1 2 103   0 -1.315094e+03  2.084701e+03 -2.038484e+02  2.473258e+03 0.0022 0.0 9.0
22  1 1 2   0   0  1.315094e+03 -2.084701e+03  1.193082e+02  2.467729e+03 0.0 0.0 9.0
#pdf 2 21 3.735728e-01 3.865790e-01 5000.0 1.674236e-01 1.548942e-01
</event>
<event>
4 7 1.0 5000.0 7.905138e-03 7.739137e-02
21 -1 0 0 103 101  0.000000e+00  0.000000e+00  1.428370e+03  1.428370e+03 0.0 0.0 9.0
 2 -1 0 0 101   0  0.000000e+00  0.000000e+00 -3.138520e+03  3.138520e+03 0.0 0.0 9.0
 2  1 1 2 103   0  1.516892e+03 -1.216908e+03  4.797128e+01  1.945284e+03 0.0022 0.0 9.0
22  1 1 2   0   0 -1.516892e+03  1.216908e+03 -1.758122e+03  2.621606e+03 0.0 0.0 9.0
#pdf 21 2 2.197492e-01 4.828493e-01 5000.0 9.758961e-02 3.561902e-03
</event>
<event>
4 7 1.0 5000.0 7.905138e-03 7.739137e-02
 2 -1 0 0 101   0  0.000000e+00  0.000000e+00  2.061371e+03  2.061371e+03 0.0 0.0 9.0
21 -1 0 0 103 101  0.000000e+00  0.000000e+00 -3.074021e+03  3.074021e+03 0.0 0.0 9.0
 2  1 1 2 103   0  1.370629e+03  2.681516e+02  1.629938e+03  2.146446e+03 0.0022 0.0 9.0
22  1 1 2   0   0 -1.370629e+03 -2.681516e+02 -2.642588e+03  2.988946e+03 0.0 0.0 9.0
#pdf 2 21 3.171340e-01 4.729262e-01 5000.0 2.286039e-01 8.666144e-02
</event>
<event>
4 7 1.0 5000.0 7.905138e-03 7.739137e-02
21 -1 0 0 103 101  0.000000e+00  0.000000e+00  2.141882e+03  2.141882e+03 0.0 0.0 9.0
 2 -1 0 0 101   0  0.000000e+00  0.000000e+00 -2.946070e+03  2.946070e+03 0.0 0.0 9.0
22  1 1 2   0   0  1.372221e+03 -1.493639e+03 -1.902913e+03  2.781192e+03 0.0 0.0 9.0
 2  1 1 2 103   0 -1.372221e+03  1.493639e+03  1.098724e+03  2.306761e+03 0.0022 0.0 9.0
#pdf 21 2 3.295203e-01 4.532416e-01 5000.0 2.509320e-02 5.289423e-03
</event>
<event>
4 7 1.0 5000.0 7.905138e-03 7.739137e-02
21 -1 0 0 103 101  0.000000e+00  0.000000e+00  2.527253e+03  2.527253e+03 0.0 0.0 9.0
 2 -1 0 0 101   0  0.000000e+00  0.000000e+00 -2.531299e+03  2.531299e+03 0.0 0.0 9.0
22  1 1 2   0   0  1.113039e+03 -2.237148e+03  3.898270e+02  2.528963e+03 0.0 0.0 9.0
 2  1 1 2 103   0 -1.113039e+03  2.237148e+03 -3.938721e+02  2.529589e+03 0.0022 0.0 9.0
#pdf 21 2 3.888082e-01 3.894306e-01 5000.0 1.206336e-02 1.196908e-02
</event>
<event>
4 7 1.0 5000.0 7.905138e-03 7.739137e-02
 2 -1 0 0 101   0  0.000000e+00  0.000000e+00  3.916904e+03  3.916904e+03 0.0 0.0 9.0
21 -1 0 0 103 101  0.000000e+00  0.000000e+00 -1.567955e+03  1.567955e+03 0.0 0.0 9.0
22  1 1 2   0   0  2.182570e+03  4.514964e+02  2.373543e+03  3.255943e+03 0.0 0.0 9.0
 2  1 1 2 103   0 -2.182570e+03 -4.514964e+02 -2.459383e+01  2.228916e+03 0.0022 0.0 9.0
#pdf 2 21 6.026007e-01 2.412238e-01 5000.0 2.811339e-02 3.254128e-01
</event>
<event>
4 7 1.0 5000.0 7.905138e-03 7.739137e-02
 2 -1 0 0 101   0  0.000000e+00  0.000000e+00  2.299514e+03  2.299514e+03 0.0 0.0 9.0
21 -1 0 0 103 101  0.000000e+00  0.000000e+00 -2.690360e+03  2.690360e+03 0.0 0.0 9.0
22  1 1 2   0   0 -1.066474e+03 -3.394212e+02 -2.423517e+03  2.669459e+03 0.0 0.0 9.0
 2  1 1 2 103   0  1.066474e+03  3.394212e+02  2.032672e+03  2.320415e+03 0.0022 0.0 9.0
#pdf 2 21 3.537714e-01 4.139016e-01 5000.0 1.876596e-01 1.304816e-01
</event>
<event>
4 7 1.0 5000.0 7.905138e-03 7.739137e-02
 2 -1 0 0 101   0  0.000000e+00  0.000000e+00  2.637515e+03  2.637515e+03 0.0 0.0 9.0
21 -1 0 0 103 101  0.000000e+00  0.000000e+00 -2.650806e+03  2.650806e+03 0.0 0.0 9.0
22  1 1 2   0   0  1.742299e+03  7.849454e+02 -1.834161e+03  2.648753e+03 0.0 0.0 9.0
 2  1 1 2 103   0 -1.742299e+03 -7.849454e+02  1.820871e+03  2.639567e+03 0.0022 0.0 9.0
#pdf 2 21 4.057715e-01 4.078162e-01 5000.0 1.374692e-01 1.356896e-01
</event>
<event>
4 7 1.0 5000.0 7.905138e-03 7.739137e-02
21 -1 0 0 103 101  0.000000e+00  0.000000e+00  3.059154e+03  3.059154e+03 0.0 0.0 9.0
 2 -1 0 0 101   0  0.000000e+00  0.000000e+00 -2.082829e+03  2.082829e+03 0.0 0.0 9.0
 2  1 1 2 103   0 -1.594834e+03  1.428415e+03  1.850035e+03  2.829575e+03 0.0022 0.0 9.0
22  1 1 2   0   0  1.594834e+03 -1.428415e+03 -8.737099e+02  2.312409e+03 0.0 0.0 9.0
#pdf 21 2 4.706391e-01 3.204353e-01 5000.0 4.198851e-03 2.804296e-02
</event>
<event>
4 7 1.0 5000.0 7.905138e-03 7.739137e-02
21 -1 0 0 103 101  0.000000e+00  0.000000e+00  3.610387e+03  3.610387e+03 0.0 0.0 9.0
 2 -1 0 0 101   0  0.000000e+00  0.000000e+00 -1.690825e+03  1.690825e+03 0.0 0.0 9.0
 2  1 1 2 103   0  4.055940e+02 -2.057784e+03 -4.412608e+02  2.143290e+03 0.0022 0.0 9.0
22  1 1 2   0   0 -4.055940e+02  2.057784e+03  2.360823e+03  3.157922e+03 0.0 0.0 9.0
#pdf 21 2 5.554442e-01 2.601269e-01 5000.0 1.276040e-03 5.881446e-02
</event>
<event>
4 7 1.0 5000.0 7.905138e-03 7.739137e-02
21 -1 0 0 103 101  0.000000e+00  0.000000e+00  1.558186e+03  1.558186e+03 0.0 0.0 9.0
 2 -1 0 0 101   0  0.000000e+00  0.000000e+00 -4.095680e+03  4.095680e+03 0.0 0.0 9.0
 2  1 1 2 103   0  1.683979e+03 -2.449807e+02 -3.358084e+03  3.764642e+03 0.0022 0.0 9.0
22  1 1 2   0   0 -1.683979e+03  2.449807e+02  8.205898e+02  1.889224e+03 0.0 0.0 9.0
#pdf 21 2 2.397209e-01 6.301047e-01 5000.0 7.588184e-02 3.909125e-04
</event>
<event>
4 7 1.0 5000.0 7.905138e-03 7.739137e-02
 2 -1 0 0 101   0  0.000000e+00  0.000000e+00  2.364746e+03  2.364746e+03 0.0 0.0 9.0
21 -1 0 0 103 101  0.000000e+00  0.000000e+00 -2.822623e+03  2.822623e+03 0.0 0.0 9.0
22  1 1 2   0   0  2.021939e+03  1.560085e+03  1.633423e+02  2.559059e+03 0.0 0.0 9.0
 2  1 1 2 103   0 -2.021939e+03 -1.560085e+03 -6.212193e+02  2.628310e+03 0.0022 0.0 9.0
#pdf 2 21 3.638071e-01 4.342497e-01 5000.0 1.772333e-01 1.140221e-01
</event>
<event>
4 7 1.0 5000.0 7.905138e-03 7.739137e-02
21 -1 0 0 103 101  0.000000e+00  0.000000e+00  1.940217e+03  1.940217e+03 0.0 0.0 9.0
 2 -1 0 0 101   0  0.000000e+00  0.000000e+00 -3.164964e+03  3.164964e+03 0.0 0.0 9.0
 2  1 1 2 103   0 -1.803565e+03  1.495412e+03 -1.443882e+03  2.752072e+03 0.0022 0.0 9.0
22  1 1 2   0   0  1.803565e+03 -1.495412e+03  2.191358e+02  2.353109e+03 0.0 0.0 9.0
#pdf 21 2 2.984950e-01 4.869175e-01 5000.0 3.670345e-02 3.370615e-03
</event>
<event>
4 7 1.0 5000.0 7.905138e-03 7.739137e-02
 2 -1 0 0 101   0  0.000000e+00  0.000000e+00  2.120788e+03  2.120788e+03 0.0 0.0 9.0
21 -1 0 0 103 101  0.000000e+00  0.000000e+00 -2.942394e+03  2.942394e+03 0.0 0.0 9.0
22  1 1 2   0   0  9.606416e+02 -1.280034e+03  1.532999e+03  2.216169e+03 0.0 0.0 9.0
 2  1 1 2 103   0 -9.606416e+02  1.280034e+03 -2.354605e+03  2.847013e+03 0.0022 0.0 9.0
#pdf 2 21 3.262752e-01 4.526760e-01 5000.0 2.179805e-01 1.003529e-01
</event>
<event>
4 7 1.0 5000.0 7.905138e-03 7.739137e-02
 2 -1 0 0 101   0  0.000000e+00  0.000000e+00  1.849296e+03  1.849296e+03 0.0 0.0 9.0
21 -1 0 0 103 101  0.000000e+00  0.000000e+00 -3.843995e+03  3.843995e+03 0.0 0.0 9.0
 2  1 1 2 103   0  2.268783e+03  6.624357e+02  3.200445e+02  2.385084e+03 0.0022 0.0 9.0
22  1 1 2   0   0 -2.268783e+03 -6.624357e+02 -2.314744e+03  3.308207e+03 0.0 0.0 9.0
#pdf 2 21 2.845071e-01 5.913839e-01 5000.0 2.685368e-01 3.145266e-02
</event>
<event>
4 7 1.0 5000.0 7.905138e-03 7.739137e-02
 2 -1 0 0 101   0  0.000000e+00  0.000000e+00  3.179211e+03  3.179211e+03 0.0 0.0 9.0
21 -1 0 0 103 101  0.000000e+00  0.000000e+00 -2.642932e+03  2.642932e+03 0.0 0.0 9.0
 2  1 1 2 103   0 -1.663491e+03  1.251714e+03  2.293791e+03  3.097655e+03 0.0022 0.0 9.0
22  1 1 2   0   0  1.663491e+03 -1.251714e+03 -1.757512e+03  2.724488e+03 0.0 0.0 9.0
#pdf 2 21 4.891095e-01 4.066049e-01 5000.0 7.669199e-02 1.367419e-01
</event>
<event>
4 7 1.0 5000.0 7.905138e-03 7.739137e-02
 2 -1 0 0 101   0  0.000000e+00  0.000000e+00  3.569971e+03  3.569971e+03 0.0 0.0 9.0
21 -1 0 0 103 101  0.000000e+00  0.000000e+00 -1.770915e+03  1.770915e+03 0.0 0.0 9.0
 2  1 1 2 103   0  1.842004e+03  1.387642e+03  1.963497e+03  3.028836e+03 0.0022 0.0 9.0
22  1 1 2   0   0 -1.842004e+03 -1.387642e+03 -1.644411e+02  2.312049e+03 0.0 0.0 9.0
#pdf 2 21 5.492263e-01 2.724484e-01 5000.0 4.666633e-02 2.840029e-01
</event>
<event>
4 7 1.0 5000.0 7.905138e-03 7.739137e-02
21 -1 0 0 103 101  0.000000e+00  0.000000e+00  3.231538e+03  3.231538e+03 0.0 0.0 9.0
 2 -1 0 0 101   0  0.000000e+00  0.000000e+00 -2.009484e+03  2.009484e+03 0.0 0.0 9.0
 2  1 1 2 103   0  8.274189e+02 -6.713941e+02  2.991449e+03  3.175557e+03 0.0022 0.0 9.0
22  1 1 2   0   0 -8.274189e+02  6.713941e+02 -1.769394e+03  2.065466e+03 0.0 0.0 9.0
#pdf 21 2 4.971598e-01 3.091514e-01 5000.0 2.931182e-03 3.223160e-02
</event>
<event>
4 7 1.0 5000.0 7.905138e-03 7.739137e-02
 2 -1 0 0 101   0  0.000000e+00  0.000000e+00  4.755933e+03  4.755933e+03 0.0 0.0 9.0
21 -1 0 0 103 101  0.000000e+00  0.000000e+00 -1.328862e+03  1.328862e+03 0.0 0.0 9.0
22  1 1 2   0   0  7.285406e+01  2.408464e+03  2.581153e+03  3.531056e+03 0.0 0.0 9.0
 2  1 1 2 103   0 -7.285406e+01 -2.408464e+03  8.459185e+02  2.553740e+03 0.0022 0.0 9.0
#pdf 2 21 7.316821e-01 2.044404e-01 5000.0 5.669922e-03 3.759169e-01
</event>
<event>
4 7 1.0 5000.0 7.905138e-03 7.739137e-02
21 -1 0 0 103 101  0.000000e+00  0.000000e+00  3.249604e+03  3.249604e+03 0.0 0.0 9.0
 2 -1 0 0 101   0  0.000000e+00  0.000000e+00 -2.000386e+03  2.000386e+03 0.0 0.0 9.0
 2  1 1 2 103   0 -1.802608e+03  3.517269e+02  2.445337e+03  3.058231e+03 0.0022 0.0 9.0
22  1 1 2   0   0  1.802608e+03 -3.517269e+02 -1.196119e+03  2.191759e+03 0.0 0.0 9.0
#pdf 21 2 4.999390e-01 3.077517e-01 5000.0 2.820736e-03 3.279151e-02
</event>
<event>
4 7 1.0 5000.0 7.905138e-03 7.739137e-02
 2 -1 0 0 101   0  0.000000e+00  0.000000e+00  3.640159e+03  3.640159e+03 0.0 0.0 9.0
21 -1 0 0 103 101  0.000000e+00  0.000000e+00 -1.798132e+03  1.798132e+03 0.0 0.0 9.0
22  1 1 2   0   0 -9.506396e+02  1.095775e+03  3.160787e+03  3.477789e+03 0.0 0.0 9.0
 2  1 1 2 103   0  9.506396e+02 -1.095775e+03 -1.318760e+03  1.960502e+03 0.0022 0.0 9.0
#pdf 2 21 5.600244e-01 2.766356e-01 5000.0 4.236591e-02 2.785891e-01
</event>
<event>
4 7 1.0 5000.0 7.905138e-03 7.739137e-02
21 -1 0 0 103 101  0.000000e+00  0.000000e+00  1.227130e+03  1.227130e+03 0.0 0.0 9.0
 2 -1 0 0 101   0  0.000000e+00  0.000000e+00 -5.100996e+03  5.100996e+03 0.0 0.0 9.0
22  1 1 2   0   0 -2.415460e+03  5.263582e+01 -2.758832e+03  3.667202e+03 0.0 0.0 9.0
 2  1 1 2 103   0  2.415460e+03 -5.263582e+01 -1.115033e+03  2.660924e+03 0.0022 0.0 9.0
#pdf 21 2 1.887893e-01 7.847686e-01 5000.0 1.458469e-01 1.551619e-05
</event>
<event>
4 7 1.0 5000.0 7.905138e-03 7.739137e-02
 2 -1 0 0 101   0  0.000000e+00  0.000000e+00  1.839128e+03  1.839128e+03 0.0 0.0 9.0
21 -1 0 0 103 101  0.000000e+00  0.000000e+00 -3.540936e+03  3.540936e+03 0.0 0.0 9.0
22  1 1 2   0   0 -2.389907e+03  4.501319e+02 -3.577115e+01  2.432192e+03 0.0 0.0 9.0
 2  1 1 2 103   0  2.389907e+03 -4.501319e+02 -1.666037e+03  2.947873e+03 0.0022 0.0 9.0
#pdf 2 21 2.829428e-01 5.447594e-01 5000.0 2.705238e-01 4.854959e-02
</event>
<event>
4 7 1.0 5000.0 7.905138e-03 7.739137e-02
21 -1 0 0 103 101  0.000000e+00  0.000000e+00  1.853586e+03  1.853586e+03 0.0 0.0 9.0
 2 -1 0 0 101   0  0.000000e+00  0.000000e+00 -3.208916e+03  3.208916e+03 0.0 0.0 9.0
22  1 1 2   0   0 -3.778870e+01 -1.042368e+03 -2.965737e+03  3.143812e+03 0.0 0.0 9.0
 2  1 1 2 103   0  3.778870e+01  1.042368e+03  1.610407e+03  1.918690e+03 0.0022 0.0 9.0
#pdf 21 2 2.851671e-01 4.936794e-01 5000.0 4.319639e-02 3.074416e-03
</event>
<event>
4 7 1.0 5000.0 7.905138e-03 7.739137e-02
 2 -1 0 0 101   0  0.000000e+00  0.000000e+00  2.406013e+03  2.406013e+03 0.0 0.0 9.0
21 -1 0 0 103 101  0.000000e+00  0.000000e+00 -2.635455e+03  2.635455e+03 0.0 0.0 9.0
 2  1 1 2 103   0 -9.499167e+02  2.241252e+03  5.304517e+02  2.491372e+03 0.0022 0.0 9.0
22  1 1 2   0   0  9.499167e+02 -2.241252e+03 -7.598931e+02  2.550096e+03 0.0 0.0 9.0
#pdf 2 21 3.701559e-01 4.054546e-01 5000.0 1.708107e-01 1.377464e-01
</event>
<event>
4 7 1.0 5000.0 7.905138e-03 7.739137e-02
21 -1 0 0 103 101  0.000000e+00  0.000000e+00  1.708218e+03  1.708218e+03 0.0 0.0 9.0
 2 -1 0 0 101   0  0.000000e+00  0.000000e+00 -3.643616e+03  3.643616e+03 0.0 0.0 9.0
22  1 1 2   0   0 -1.647083e+03 -6.367101e+01  1.040987e+03  1.949510e+03 0.0 0.0 9.0
 2  1 1 2 103   0  1.647083e+03  6.367101e+01 -2.976385e+03  3.402323e+03 0.0022 0.0 9.0
#pdf 21 2 2.628027e-01 5.605563e-01 5000.0 5.688301e-02 1.183429e-03
</event>
<event>
4 7 1.0 5000.0 7.905138e-03 7.739137e-02
21 -1 0 0 103 101  0.000000e+00  0.000000e+00  2.110820e+03  2.110820e+03 0.0 0.0 9.0
 2 -1 0 0 101   0  0.000000e+00  0.000000e+00 -2.078069e+03  2.078069e+03 0.0 0.0 9.0
 2  1 1 2 103   0 -2.495290e+01 -1.894367e+03 -8.765014e+02  2.087463e+03 0.0022 0.0 9.0
22  1 1 2   0   0  2.495290e+01  1.894367e+03  9.092529e+02  2.101426e+03 0.0 0.0 9.0
#pdf 21 2 3.247416e-01 3.197029e-01 5000.0 2.660359e-02 2.829573e-02
</event>
<event>
4 7 1.0 5000.0 7.905138e-03 7.739137e-02
 2 -1 0 0 101   0  0.000000e+00  0.000000e+00  3.071685e+03  3.071685e+03 0.0 0.0 9.0
21 -1 0 0 103 101  0.000000e+00  0.000000e+00 -1.991292e+03  1.991292e+03 0.0 0.0 9.0
 2  1 1 2 103   0 -8.556301e+02  1.383183e+02 -1.830744e+03  2.025551e+03 0.0022 0.0 9.0
22  1 1 2   0   0  8.556301e+02 -1.383183e+02  2.911137e+03  3.037425e+03 0.0 0.0 9.0
#pdf 2 21 4.725669e-01 3.063526e-01 5000.0 8.689264e-02 2.414528e-01
</event>
<event>
4 7 1.0 5000.0 7.905138e-03 7.739137e-02
21 -1 0 0 103 101  0.000000e+00  0.000000e+00  1.288232e+03  1.288232e+03 0.0 0.0 9.0
 2 -1 0 0 101   0  0.000000e+00  0.000000e+00 -4.897381e+03  4.897381e+03 0.0 0.0 9.0
 2  1 1 2 103   0 -1.731239e+03  1.166709e+03 -8.486933e+01  2.089402e+03 0.0022 0.0 9.0
22  1 1 2   0   0  1.731239e+03 -1.166709e+03 -3.524280e+03  4.096211e+03 0.0 0.0 9.0
#pdf 21 2 1.981895e-01 7.534433e-01 5000.0 1.288119e-01 3.393425e-05
</event>
<event>
4 7 1.0 5000.0 7.905138e-03 7.739137e-02
21 -1 0 0 103 101  0.000000e+00  0.000000e+00  2.285286e+03  2.285286e+03 0.0 0.0 9.0
 2 -1 0 0 101   0  0.000000e+00  0.000000e+00 -2.699653e+03  2.699653e+03 0.0 0.0 9.0
 2  1 1 2 103   0 -4.342948e+02 -2.193194e+03 -1.292961e+03  2.582724e+03 0.0022 0.0 9.0
22  1 1 2   0   0  4.342948e+02  2.193194e+03  8.785934e+02  2.402216e+03 0.0 0.0 9.0
#pdf 21 2 3.515825e-01 4.153313e-01 5000.0 1.914191e-02 8.628259e-03
</event>
<event>
4 7 1.0 5000.0 7.905138e-03 7.739137e-02
21 -1 0 0 103 101  0.000000e+00  0.000000e+00  1.629545e+03  1.629545e+03 0.0 0.0 9.0
 2 -1 0 0 101   0  0.000000e+00  0.000000e+00 -3.891905e+03  3.891905e+03 0.0 0.0 9.0
 2  1 1 2 103   0  2.510252e+03  8.160381e+01 -9.290163e+02  2.677891e+03 0.0022 0.0 9.0
22  1 1 2   0   0 -2.510252e+03 -8.160381e+01 -1.333343e+03  2.843560e+03 0.0 0.0 9.0
#pdf 21 2 2.506993e-01 5.987546e-01 5000.0 6.616401e-02 6.547024e-04
</event>
<event>
4 7 1.0 5000.0 7.905138e-03 7.739137e-02
21 -1 0 0 103 101  0.000000e+00  0.000000e+00  3.565777e+03  3.565777e+03 0.0 0.0 9.0
 2 -1 0 0 101   0  0.000000e+00  0.000000e+00 -1.734730e+03  1.734730e+03 0.0 0.0 9.0
22  1 1 2   0   0 -1.437646e+03  1.430994e+03 -6.180120e+02  2.120497e+03 0.0 0.0 9.0
 2  1 1 2 103   0  1.437646e+03 -1.430994e+03  2.449060e+03  3.180010e+03 0.0022 0.0 9.0
#pdf 21 2 5.485811e-01 2.668815e-01 5000.0 1.411321e-03 5.408370e-02
</event>
<event>
4 7 1.0 5000.0 7.905138e-03 7.739137e-02
 2 -1 0 0 101   0  0.000000e+00  0.000000e+00  2.101249e+03  2.101249e+03 0.0 0.0 9.0
21 -1 0 0 103 101  0.000000e+00  0.000000e+00 -3.011042e+03  3.011042e+03 0.0 0.0 9.0
 2  1 1 2 103   0 -1.223344e+03  7.674195e+02 -2.547782e+03  2.928599e+03 0.0022 0.0 9.0
22  1 1 2   0   0  1.223344e+03 -7.674195e+02  1.637989e+03  2.183692e+03 0.0 0.0 9.0
#pdf 2 21 3.232691e-01 4.632373e-01 5000.0 2.214476e-01 9.303449e-02
</event>
<event>
4 7 1.0 5000.0 7.905138e-03 7.739137e-02
 2 -1 0 0 101   0  0.000000e+00  0.000000e+00  2.494012e+03  2.494012e+03 0.0 0.0 9.0
21 -1 0 0 103 101  0.000000e+00  0.000000e+00 -2.432546e+03  2.432546e+03 0.0 0.0 9.0
 2  1 1 2 103   0  2.383610e+03 -1.265806e+02  6.383803e+02  2.470860e+03 0.0022 0.0 9.0
22  1 1 2   0   0 -2.383610e+03  1.265806e+02 -5.769143e+02  2.455697e+03 0.0 0.0 9.0
#pdf 2 21 3.836941e-01 3.742378e-01 5000.0 1.576240e-01 1.667698e-01
</event>
<event>
4 7 1.0 5000.0 7.905138e-03 7.739137e-02
21 -1 0 0 103 101  0.000000e+00  0.000000e+00  1.753112e+03  1.753112e+03 0.0 0.0 9.0
 2 -1 0 0 101   0  0.000000e+00  0.000000e+00 -3.709069e+03  3.709069e+03 0.0 0.0 9.0
22  1 1 2   0   0 -1.320592e+03 -2.173706e+03 -1.173870e+03  2.801237e+03 0.0 0.0 9.0
 2  1 1 2 103   0  1.320592e+03  2.173706e+03 -7.820871e+02  2.660943e+03 0.0022 0.0 9.0
#pdf 21 2 2.697095e-01 5.706260e-01 5000.0 5.223184e-02 1.015047e-03
</event>
<event>
4 7 1.0 5000.0 7.905138e-03 7.739137e-02
 2 -1 0 0 101   0  0.000000e+00  0.000000e+00  3.477374e+03  3.477374e+03 0.0 0.0 9.0
21 -1 0 0 103 101  0.000000e+00  0.000000e+00 -1.613850e+03  1.613850e+03 0.0 0.0 9.0
22  1 1 2   0   0 -1.917881e+03 -1.960927e+01 -5.623579e+02  1.998724e+03 0.0 0.0 9.0
 2  1 1 2 103   0  1.917881e+03  1.960927e+01  2.425882e+03  3.092500e+03 0.0022 0.0 9.0
#pdf 2 21 5.349807e-01 2.482846e-01 5000.0 5.284625e-02 3.159126e-01
</event>
<event>
4 7 1.0 5000.0 7.905138e-03 7.739137e-02
21 -1 0 0 103 101  0.000000e+00  0.000000e+00  4.170169e+03  4.170169e+03 0.0 0.0 9.0
 2 -1 0 0 101   0  0.000000e+00  0.000000e+00 -1.446649e+03  1.446649e+03 0.0 0.0 9.0
22  1 1 2   0   0  1.293918e+03  6.552417e+02  3.628253e+03  3.907401e+03 0.0 0.0 9.0
 2  1 1 2 103   0 -1.293918e+03 -6.552417e+02 -9.047325e+02  1.709417e+03 0.0022 0.0 9.0
#pdf 21 2 6.415645e-01 2.225613e-01 5000.0 3.212166e-04 9.413683e-02
</event>
<event>
4 7 1.0 5000.0 7.905138e-03 7.739137e-02
21 -1 0 0 103 101  0.000000e+00  0.000000e+00  1.827218e+03  1.827218e+03 0.0 0.0 9.0
 2 -1 0 0 101   0  0.000000e+00  0.000000e+00 -4.234913e+03  4.234913e+03 0.0 0.0 9.0
22  1 1 2   0   0 -7.689516e+02 -4.965609e+02 -4.066116e+03  4.167872e+03 0.0 0.0 9.0
 2  1 1 2 103   0  7.689516e+02  4.965609e+02  1.658421e+03  1.894259e+03 0.0022 0.0 9.0
#pdf 21 2 2.811105e-01 6.515251e-01 5000.0 4.539898e-02 2.697031e-04
</event>
<event>
4 7 1.0 5000.0 7.905138e-03 7.739137e-02
 2 -1 0 0 101   0  0.000000e+00  0.000000e+00  2.483419e+03  2.483419e+03 0.0 0.0 9.0
21 -1 0 0 103 101  0.000000e+00  0.000000e+00 -2.492941e+03  2.492941e+03 0.0 0.0 9.0
22  1 1 2   0   0  2.059333e+03 -1.117628e+03 -8.420637e+02  2.489782e+03 0.0 0.0 9.0
 2  1 1 2 103   0 -2.059333e+03  1.117628e+03  8.325417e+02  2.486578e+03 0.0022 0.0 9.0
#pdf 2 21 3.820645e-01 3.835294e-01 5000.0 1.591791e-01 1.577808e-01
</event>
<event>
4 7 1.0 5000.0 7.905138e-03 7.739137e-02
 2 -1 0 0 101   0  0.000000e+00  0.000000e+00  3.541172e+03  3.541172e+03 0.0 0.0 9.0
21 -1 0 0 103 101  0.000000e+00  0.000000e+00 -1.759018e+03  1.759018e+03 0.0 0.0 9.0
22  1 1 2   0   0 -1.940744e+03 -1.179322e+03  1.990308e+03  3.019704e+03 0.0 0.0 9.0
 2  1 1 2 103   0  1.940744e+03  1.179322e+03 -2.081542e+02  2.280486e+03 0.0022 0.0 9.0
#pdf 2 21 5.447957e-01 2.706182e-01 5000.0 4.853415e-02 2.863824e-01
</event>
<event>
4 7 1.0 5000.0 7.905138e-03 7.739137e-02
 2 -1 0 0 101   0  0.000000e+00  0.000000e+00  1.624674e+03  1.624674e+03 0.0 0.0 9.0
21 -1 0 0 103 101  0.000000e+00  0.000000e+00 -3.973605e+03  3.973605e+03 0.0 0.0 9.0
22  1 1 2   0   0 -1.220533e+03 -1.164556e+03 -3.267604e+03  3.677381e+03 0.0 0.0 9.0
 2  1 1 2 103   0  1.220533e+03  1.164556e+03  9.186729e+02  1.920898e+03 0.0022 0.0 9.0
#pdf 2 21 2.499498e-01 6.113239e-01 5000.0 3.136675e-01 2.570038e-02
</event>
<event>
4 7 1.0 5000.0 7.905138e-03 7.739137e-02
 2 -1 0 0 101   0  0.000000e+00  0.000000e+00  1.701908e+03  1.701908e+03 0.0 0.0 9.0
21 -1 0 0 103 101  0.000000e+00  0.000000e+00 -3.135503e+03  3.135503e+03 0.0 0.0 9.0
 2  1 1 2 103   0  1.678484e+03 -3.824308e+02 -2.329631e+03  2.896678e+03 0.0022 0.0 9.0
22  1 1 2   0   0 -1.678484e+03  3.824308e+02  8.960365e+02  1.940733e+03 0.0 0.0 9.0
#pdf 2 21 2.618320e-01 4.823851e-01 5000.0 2.978906e-01 8.073033e-02
</event>
<event>
4 7 1.0 5000.0 7.905138e-03 7.739137e-02
 2 -1 0 0 101   0  0.000000e+00  0.000000e+00  4.853156e+03  4.853156e+03 0.0 0.0 9.0
21 -1 0 0 103 101  0.000000e+00  0.000000e+00 -1.242894e+03  1.242894e+03 0.0 0.0 9.0
 2  1 1 2 103   0  1.092663e+03 -2.652306e+02  4.514971e+03  4.652873e+03 0.0022 0.0 9.0
22  1 1 2   0   0 -1.092663e+03  2.652306e+02 -9.047090e+02  1.443177e+03 0.0 0.0 9.0
#pdf 2 21 7.466394e-01 1.912144e-01 5000.0 4.481804e-03 3.941566e-01
</event>
<event>
4 7 1.0 5000.0 7.905138e-03 7.739137e-02
 2 -1 0 0 101   0  0.000000e+00  0.000000e+00  4.567599e+03  4.567599e+03 0.0 0.0 9.0
21 -1 0 0 103 101  0.000000e+00  0.000000e+00 -1.360869e+03  1.360869e+03 0.0 0.0 9.0
 2  1 1 2 103   0 -2.017412e+03  1.329281e+03  2.335281e+03  3.360130e+03 0.0022 0.0 9.0
22  1 1 2   0   0  2.017412e+03 -1.329281e+03  8.714493e+02  2.568338e+03 0.0 0.0 9.0
#pdf 2 21 7.027076e-01 2.093645e-01 5000.0 8.624811e-03 3.690939e-01
</event>
<event>
4 7 1.0 5000.0 7.905138e-03 7.739137e-02
 2 -1 0 0 101   0  0.000000e+00  0.000000e+00  3.380430e+03  3.380430e+03 0.0 0.0 9.0
21 -1 0 0 103 101  0.000000e+00  0.000000e+00 -1.620464e+03  1.620464e+03 0.0 0.0 9.0
22  1 1 2   0   0 -7.229361e+02 -1.849148e+03 -4.440250e+02  2.034489e+03 0.0 0.0 9.0
 2  1 1 2 103   0  7.229361e+02  1.849148e+03  2.203990e+03  2.966405e+03 0.0022 0.0 9.0
#pdf 2 21 5.200661e-01 2.493022e-01 5000.0 5.991486e-02 3.145393e-01
</event>
<event>
4 7 1.0 5000.0 7.905138e-03 7.739137e-02
21 -1 0 0 103 101  0.000000e+00  0.000000e+00  1.621956e+03  1.621956e+03 0.0 0.0 9.0
 2 -1 0 0 101   0  0.000000e+00  0.000000e+00 -3.829744e+03  3.829744e+03 0.0 0.0 9.0
22  1 1 2   0   0  1.549900e+03 -1.950198e+03 -1.017685e+03  2.690937e+03 0.0 0.0 9.0
 2  1 1 2 103   0 -1.549900e+03  1.950198e+03 -1.190103e+03  2.760762e+03 0.0022 0.0 9.0
#pdf 21 2 2.495316e-01 5.891913e-01 5000.0 6.712177e-02 7.617382e-04
</event>
<event>
4 7 1.0 5000.0 7.905138e-03 7.739137e-02
21 -1 0 0 103 101  0.000000e+00  0.000000e+00  2.971586e+03  2.971586e+03 0.0 0.0 9.0
 2 -1 0 0 101   0  0.000000e+00  0.000000e+00 -2.122726e+03  2.122726e+03 0.0 0.0 9.0
22  1 1 2   0   0  1.936864e+03  1.587121e+03  6.207418e+02  2.579867e+03 0.0 0.0 9.0
 2  1 1 2 103   0 -1.936864e+03 -1.587121e+03  2.281180e+02  2.514445e+03 0.0022 0.0 9.0
#pdf 21 2 4.571671e-01 3.265733e-01 5000.0 5.021555e-03 2.601436e-02
</event>
<event>
4 7 1.0 5000.0 7.905138e-03 7.739137e-02
 2 -1 0 0 101   0  0.000000e+00  0.000000e+00  3.312798e+03  3.312798e+03 0.0 0.0 9.0
21 -1 0 0 103 101  0.000000e+00  0.000000e+00 -1.881494e+03  1.881494e+03 0.0 0.0 9.0
22  1 1 2   0   0 -4.536944e+02 -2.251445e+03 -3.026294e+02  2.316555e+03 0.0 0.0 9.0
 2  1 1 2 103   0  4.536944e+02  2.251445e+03  1.733933e+03  2.877737e+03 0.0022 0.0 9.0
#pdf 2 21 5.096613e-01 2.894606e-01 5000.0 6.522867e-02 2.622760e-01
</event>
<event>
4 7 1.0 5000.0 7.905138e-03 7.739137e-02
 2 -1 0 0 101   0  0.000000e+00  0.000000e+00  3.304664e+03  3.304664e+03 0.0 0.0 9.0
21 -1 0 0 103 101  0.000000e+00  0.000000e+00 -1.934146e+03  1.934146e+03 0.0 0.0 9.0
 2  1 1 2 103   0 -1.910940e+03  3.485678e+02 -9.913094e+02  2.180800e+03 0.0022 0.0 9.0
22  1 1 2   0   0  1.910940e+03 -3.485678e+02  2.361828e+03  3.058010e+03 0.0 0.0 9.0
#pdf 2 21 5.084098e-01 2.975608e-01 5000.0 6.588966e-02 2.521906e-01
</event>
<event>
4 7 1.0 5000.0 7.905138e-03 7.739137e-02
21 -1 0 0 103 101  0.000000e+00  0.000000e+00  1.920569e+03  1.920569e+03 0.0 0.0 9.0
 2 -1 0 0 101   0  0.000000e+00  0.000000e+00 -3.252248e+03  3.252248e+03 0.0 0.0 9.0
22  1 1 2   0   0  1.741611e+03  2.274878e+02  1.174157e+03  2.112724e+03 0.0 0.0 9.0
 2  1 1 2 103   0 -1.741611e+03 -2.274878e+02 -2.505835e+03  3.060093e+03 0.0022 0.0 9.0
#pdf 21 2 2.954722e-01 5.003458e-01 5000.0 3.811091e-02 2.804875e-03
</event>
<event>
4 7 1.0 5000.0 7.905138e-03 7.739137e-02
 2 -1 0 0 101   0  0.000000e+00  0.000000e+00  2.135297e+03  2.135297e+03 0.0 0.0 9.0
21 -1 0 0 103 101  0.000000e+00  0.000000e+00 -2.401225e+03  2.401225e+03 0.0 0.0 9.0
22  1 1 2   0   0  1.468465e+03 -5.511710e+02 -1.768919e+03  2.364160e+03 0.0 0.0 9.0
 2  1 1 2 103   0 -1.468465e+03  5.511710e+02  1.502991e+03  2.172362e+03 0.0022 0.0 9.0
#pdf 2 21 3.285072e-01 3.694193e-01 5000.0 2.154244e-01 1.715485e-01
</event>
<event>
4 7 1.0 5000.0 7.905138e-03 7.739137e-02
 2 -1 0 0 101   0  0.000000e+00  0.000000e+00  2.005015e+03  2.005015e+03 0.0 0.0 9.0
21 -1 0 0 103 101  0.000000e+00  0.000000e+00 -3.149281e+03  3.149281e+03 0.0 0.0 9.0
22  1 1 2   0   0  1.760250e+03 -1.570705e+03 -1.459590e+03  2.774166e+03 0.0 0.0 9.0
 2  1 1 2 103   0 -1.760250e+03  1.570705e+03  3.153241e+02  2.380131e+03 0.0022 0.0 9.0
#pdf 2 21 3.084639e-01 4.845048e-01 5000.0 2.389071e-01 7.944189e-02
</event>
<event>
4 7 1.0 5000.0 7.905138e-03 7.739137e-02
21 -1 0 0 103 101  0.000000e+00  0.000000e+00  4.056185e+03  4.056185e+03 0.0 0.0 9.0
 2 -1 0 0 101   0  0.000000e+00  0.000000e+00 -1.541772e+03  1.541772e+03 0.0 0.0 9.0
 2  1 1 2 103   0  5.637594e+02  1.253522e+03  3.595512e+03  3.849266e+03 0.0022 0.0 9.0
22  1 1 2   0   0 -5.637594e+02 -1.253522e+03 -1.081099e+03  1.748691e+03 0.0 0.0 9.0
#pdf 21 2 6.240284e-01 2.371957e-01 5000.0 4.333156e-04 7.830802e-02
</event>
<event>
4 7 1.0 5000.0 7.905138e-03 7.739137e-02
 2 -1 0 0 101   0  0.000000e+00  0.000000e+00  2.685119e+03  2.685119e+03 0.0 0.0 9.0
21 -1 0 0 103 101  0.000000e+00  0.000000e+00 -2.054870e+03  2.054870e+03 0.0 0.0 9.0
 2  1 1 2 103   0 -2.321378e+03 -2.294776e+02  5.934873e+02  2.407007e+03 0.0022 0.0 9.0
22  1 1 2   0   0  2.321378e+03  2.294776e+02  3.676156e+01  2.332983e+03 0.0 0.0 9.0
#pdf 2 21 4.130953e-01 3.161339e-01 5000.0 1.311644e-01 2.297804e-01
</event>
<event>
4 7 1.0 5000.0 7.905138e-03 7.739137e-02
21 -1 0 0 103 101  0.000000e+00  0.000000e+00  2.250317e+03  2.250317e+03 0.0 0.0 9.0
 2 -1 0 0 101   0  0.000000e+00  0.000000e+00 -2.743505e+03  2.743505e+03 0.0 0.0 9.0
22  1 1 2   0   0  1.033154e+03 -1.407527e+03 -2.023108e+03  2.672359e+03 0.0 0.0 9.0
 2  1 1 2 103   0 -1.033154e+03  1.407527e+03  1.529919e+03  2.321463e+03 0.0022 0.0 9.0
#pdf 21 2 3.462026e-01 4.220777e-01 5000.0 2.045123e-02 7.917393e-03
</event>
<event>
4 7 1.0 5000.0 7.905138e-03 7.739137e-02
 2 -1 0 0 101   0  0.000000e+00  0.000000e+00  2.988037e+03  2.988037e+03 0.0 0.0 9.0
21 -1 0 0 103 101  0.000000e+00  0.000000e+00 -2.101797e+03  2.101797e+03 0.0 0.0 9.0
 2  1 1 2 103   0 -3.140123e+02  2.014130e+03 -1.037204e+03  2.287164e+03 0.0022 0.0 9.0
22  1 1 2   0   0  3.140123e+02 -2.014130e+03  1.923445e+03  2.802671e+03 0.0 0.0 9.0
#pdf 2 21 4.596980e-01 3.233534e-01 5000.0 9.544112e-02 2.213500e-01
</event>
<event>
4 7 1.0 5000.0 7.905138e-03 7.739137e-02
 2 -1 0 0 101   0  0.000000e+00  0.000000e+00  2.481521e+03  2.481521e+03 0.0 0.0 9.0
21 -1 0 0 103 101  0.000000e+00  0.000000e+00 -2.549436e+03  2.549436e+03 0.0 0.0 9.0
22  1 1 2   0   0 -2.046691e+03 -3.686592e+02  1.380960e+03  2.496378e+03 0.0 0.0 9.0
 2  1 1 2 103   0  2.046691e+03  3.686592e+02 -1.448875e+03  2.534579e+03 0.0022 0.0 9.0
#pdf 2 21 3.817725e-01 3.922209e-01 5000.0 1.594586e-01 1.496431e-01
</event>
<event>
4 7 1.0 5000.0 7.905138e-03 7.739137e-02
 2 -1 0 0 101   0  0.000000e+00  0.000000e+00  4.161351e+03  4.161351e+03 0.0 0.0 9.0
21 -1 0 0 103 101  0.000000e+00  0.000000e+00 -1.487436e+03  1.487436e+03 0.0 0.0 9.0
 2  1 1 2 103   0 -1.127508e+03  1.625731e+03  3.049433e+03  3.635013e+03 0.0022 0.0 9.0
22  1 1 2   0   0  1.127508e+03 -1.625731e+03 -3.755185e+02  2.013775e+03 0.0 0.0 9.0
#pdf 2 21 6.402079e-01 2.288364e-01 5000.0 1.878576e-02 3.423237e-01
</event>
<event>
4 7 1.0 5000.0 7.905138e-03 7.739137e-02
21 -1 0 0 103 101  0.000000e+00  0.000000e+00  2.354382e+03  2.354382e+03 0.0 0.0 9.0
 2 -1 0 0 101   0  0.000000e+00  0.000000e+00 -2.659474e+03  2.659474e+03 0.0 0.0 9.0
 2  1 1 2 103   0  1.948676e+03  1.563018e+03 -2.979079e+02  2.515773e+03 0.0022 0.0 9.0
22  1 1 2   0   0 -1.948676e+03 -1.563018e+03 -7.184492e+00  2.498083e+03 0.0 0.0 9.0
#pdf 21 2 3.622126e-01 4.091499e-01 5000.0 1.678745e-02 9.334335e-03
</event>
<event>
4 7 1.0 5000.0 7.905138e-03 7.739137e-02
21 -1 0 0 103 101  0.000000e+00  0.000000e+00  3.318179e+03  3.318179e+03 0.0 0.0 9.0
 2 -1 0 0 101   0  0.000000e+00  0.000000e+00 -1.905144e+03  1.905144e+03 0.0 0.0 9.0
 2  1 1 2 103   0  1.993057e+03  1.485183e+03  3.129438e+02  2.505191e+03 0.0022 0.0 9.0
22  1 1 2   0   0 -1.993057e+03 -1.485183e+03  1.100091e+03  2.718133e+03 0.0 0.0 9.0
#pdf 21 2 5.104891e-01 2.930991e-01 5000.0 2.436793e-03 3.923514e-02
</event>
<event>
4 7 1.0 5000.0 7.905138e-03 7.739137e-02
 2 -1 0 0 101   0  0.000000e+00  0.000000e+00  2.049953e+03  2.049953e+03 0.0 0.0 9.0
21 -1 0 0 103 101  0.000000e+00  0.000000e+00 -3.364774e+03  3.364774e+03 0.0 0.0 9.0
 2  1 1 2 103   0 -1.717696e+03 -2.540134e+02 -2.688642e+03  3.200593e+03 0.0022 0.0 9.0
22  1 1 2   0   0  1.717696e+03  2.540134e+02  1.373821e+03  2.214133e+03 0.0 0.0 9.0
#pdf 2 21 3.153774e-01 5.176575e-01 5000.0 2.306724e-01 6.111585e-02
</event>
<event>
4 7 1.0 5000.0 7.905138e-03 7.739137e-02
21 -1 0 0 103 101  0.000000e+00  0.000000e+00  1.623602e+03  1.623602e+03 0.0 0.0 9.0
 2 -1 0 0 101   0  0.000000e+00  0.000000e+00 -3.594788e+03  3.594788e+03 0.0 0.0 9.0
22  1 1 2   0   0 -1.765709e+03 -1.240428e+03 -2.158848e+03  3.052378e+03 0.0 0.0 9.0
 2  1 1 2 103   0  1.765709e+03  1.240428e+03  1.876619e+02  2.166012e+03 0.0022 0.0 9.0
#pdf 21 2 2.497850e-01 5.530443e-01 5000.0 6.691327e-02 1.321001e-03
</event>
<event>
4 7 1.0 5000.0 7.905138e-03 7.739137e-02
21 -1 0 0 103 101  0.000000e+00  0.000000e+00  1.939815e+03  1.939815e+03 0.0 0.0 9.0
 2 -1 0 0 101   0  0.000000e+00  0.000000e+00 -3.159358e+03  3.159358e+03 0.0 0.0 9.0
22  1 1 2   0   0  1.609576e+03 -3.395630e+02  1.295532e+03  2.093905e+03 0.0 0.0 9.0
 2  1 1 2 103   0 -1.609576e+03  3.395630e+02 -2.515074e+03  3.005268e+03 0.0022 0.0 9.0
#pdf 21 2 2.984331e-01 4.860551e-01 5000.0 3.673206e-02 3.410286e-03
</event>
<event>
4 7 1.0 5000.0 7.905138e-03 7.739137e-02
 2 -1 0 0 101   0  0.000000e+00  0.000000e+00  2.880368e+03  2.880368e+03 0.0 0.0 9.0
21 -1 0 0 103 101  0.000000e+00  0.000000e+00 -2.168173e+03  2.168173e+03 0.0 0.0 9.0
22  1 1 2   0   0 -9.113330e+02 -8.480423e+01  2.704972e+03  2.855625e+03 0.0 0.0 9.0
 2  1 1 2 103   0  9.113330e+02  8.480423e+01 -1.992777e+03  2.192916e+03 0.0022 0.0 9.0
#pdf 2 21 4.431335e-01 3.335650e-01 5000.0 1.072841e-01 2.096948e-01
</event>
<event>
4 7 1.0 5000.0 7.905138e-03 7.739137e-02
21 -1 0 0 103 101  0.000000e+00  0.000000e+00  1.327943e+03  1.327943e+03 0.0 0.0 9.0
 2 -1 0 0 101   0  0.000000e+00  0.000000e+00 -4.854242e+03  4.854242e+03 0.0 0.0 9.0
22  1 1 2   0   0 -1.710987e+03  1.190036e+02  5.160152e+02  1.791064e+03 0.0 0.0 9.0
 2  1 1 2 103   0  1.710987e+03 -1.190036e+02 -4.042314e+03  4.391121e+03 0.0022 0.0 9.0
#pdf 21 2 2.042989e-01 7.468065e-01 5000.0 1.189201e-01 3.962862e-05
</event>
<event>
4 7 1.0 5000.0 7.905138e-03 7.739137e-02
21 -1 0 0 103 101  0.000000e+00  0.000000e+00  3.994307e+03  3.994307e+03 0.0 0.0 9.0
 2 -1 0 0 101   0  0.000000e+00  0.000000e+00 -1.581704e+03  1.581704e+03 0.0 0.0 9.0
22  1 1 2   0   0  2.351268e+03 -3.971708e+02  2.087826e+03  3.169420e+03 0.0 0.0 9.0
 2  1 1 2 103   0 -2.351268e+03  3.971708e+02  3.247773e+02  2.406592e+03 0.0022 0.0 9.0
#pdf 21 2 6.145088e-01 2.433391e-01 5000.0 5.073003e-04 7.249168e-02
</event>
<event>
4 7 1.0 5000.0 7.905138e-03 7.739137e-02
 2 -1 0 0 101   0  0.000000e+00  0.000000e+00  3.258301e+03  3.258301e+03 0.0 0.0 9.0
21 -1 0 0 103 101  0.000000e+00  0.000000e+00 -1.670073e+03  1.670073e+03 0.0 0.0 9.0
22  1 1 2   0   0  4.318529e+02  2.262017e+03  4.011539e+02  2.337551e+03 0.0 0.0 9.0
 2  1 1 2 103   0 -4.318529e+02 -2.262017e+03  1.187074e+03  2.590823e+03 0.0022 0.0 9.0
#pdf 2 21 5.012771e-01 2.569343e-01 5000.0 6.974739e-02 3.043533e-01
</event>
<event>
4 7 1.0 5000.0 7.905138e-03 7.739137e-02
21 -1 0 0 103 101  0.000000e+00  0.000000e+00  1.602839e+03  1.602839e+03 0.0 0.0 9.0
 2 -1 0 0 101   0  0.000000e+00  0.000000e+00 -2.789281e+03  2.789281e+03 0.0 0.0 9.0
 2  1 1 2 103   0 -1.015674e+03 -1.562453e+03 -1.630750e+03  2.476328e+03 0.0022 0.0 9.0
22  1 1 2   0   0  1.015674e+03  1.562453e+03  4.443076e+02  1.915793e+03 0.0 0.0 9.0
#pdf 21 2 2.465906e-01 4.291202e-01 5000.0 6.956789e-02 7.232104e-03
</event>
<event>
4 7 1.0 5000.0 7.905138e-03 7.739137e-02
 2 -1 0 0 101   0  0.000000e+00  0.000000e+00  3.704499e+03  3.704499e+03 0.0 0.0 9.0
21 -1 0 0 103 101  0.000000e+00  0.000000e+00 -1.678092e+03  1.678092e+03 0.0 0.0 9.0
 2  1 1 2 103   0  2.062116e+03 -3.453514e+02  2.479343e+03  3.243259e+03 0.0022 0.0 9.0
22  1 1 2   0   0 -2.062116e+03  3.453514e+02 -4.529355e+02  2.139332e+03 0.0 0.0 9.0
#pdf 2 21 5.699229e-01 2.581679e-01 5000.0 3.865371e-02 3.027215e-01
</event>
<event>
4 7 1.0 5000.0 7.905138e-03 7.739137e-02
21 -1 0 0 103 101  0.000000e+00  0.000000e+00  2.459047e+03  2.459047e+03 0.0 0.0 9.0
 2 -1 0 0 101   0  0.000000e+00  0.000000e+00 -2.492025e+03  2.492025e+03 0.0 0.0 9.0
22  1 1 2   0   0  3.017451e+02  1.182182e+03  2.137486e+03  2.461189e+03 0.0 0.0 9.0
 2  1 1 2 103   0 -3.017451e+02 -1.182182e+03 -2.170464e+03  2.489883e+03 0.0022 0.0 9.0
#pdf 21 2 3.783149e-01 3.833885e-01 5000.0 1.376102e-02 1.291606e-02
</event>
<event>
4 7 1.0 5000.0 7.905138e-03 7.739137e-02
21 -1 0 0 103 101  0.000000e+00  0.000000e+00  2.033983e+03  2.033983e+03 0.0 0.0 9.0
 2 -1 0 0 101   0  0.000000e+00  0.000000e+00 -3.028262e+03  3.028262e+03 0.0 0.0 9.0
 2  1 1 2 103   0  9.522203e+02 -1.303807e+03 -2.419470e+03  2.908689e+03 0.0022 0.0 9.0
22  1 1 2   0   0 -9.522203e+02  1.303807e+03  1.425190e+03  2.153556e+03 0.0 0.0 9.0
#pdf 21 2 3.129204e-01 4.658865e-01 5000.0 3.076350e-02 4.472688e-03
</event>
<event>
4 7 1.0 5000.0 7.905138e-03 7.739137e-02
 2 -1 0 0 101   0  0.000000e+00  0.000000e+00  3.948469e+03  3.948469e+03 0.0 0.0 9.0
21 -1 0 0 103 101  0.000000e+00  0.000000e+00 -1.549777e+03  1.549777e+03 0.0 0.0 9.0
22  1 1 2   0   0  2.139193e+02 -2.214998e+03 -1.343546e+00  2.225305e+03 0.0 0.0 9.0
 2  1 1 2 103   0 -2.139193e+02  2.214998e+03  2.400035e+03  3.272941e+03 0.0022 0.0 9.0
#pdf 2 21 6.074567e-01 2.384273e-01 5000.0 2.675118e-02 3.292015e-01
</event>
<event>
4 7 1.0 5000.0 7.905138e-03 7.739137e-02
21 -1 0 0 103 101  0.000000e+00  0.000000e+00  1.621273e+03  1.621273e+03 0.0 0.0 9.0
 2 -1 0 0 101   0  0.000000e+00  0.000000e+00 -3.936981e+03  3.936981e+03 0.0 0.0 9.0
22  1 1 2   0   0 -2.892860e+02  2.339580e+03 -1.583533e+02  2.362710e+03 0.0 0.0 9.0
 2  1 1 2 103   0  2.892860e+02 -2.339580e+03 -2.157355e+03  3.195544e+03 0.0022 0.0 9.0
#pdf 21 2 2.494266e-01 6.056893e-01 5000.0 6.720836e-02 5.859590e-04
</event>
<event>
4 7 1.0 5000.0 7.905138e-03 7.739137e-02
 2 -1 0 0 101   0  0.000000e+00  0.000000e+00  2.358401e+03  2.358401e+03 0.0 0.0 9.0
21 -1 0 0 103 101  0.000000e+00  0.000000e+00 -2.706105e+03  2.706105e+03 0.0 0.0 9.0
22  1 1 2   0   0  4.957784e+02  1.635896e+03 -2.038394e+03  2.660263e+03 0.0 0.0 9.0
 2  1 1 2 103   0 -4.957784e+02 -1.635896e+03  1.690689e+03  2.404243e+03 0.0022 0.0 9.0
#pdf 2 21 3.628309e-01 4.163239e-01 5000.0 1.782326e-01 1.284435e-01
</event>
<event>
4 7 1.0 5000.0 7.905138e-03 7.739137e-02
 2 -1 0 0 101   0  0.000000e+00  0.000000e+00  2.814035e+03  2.814035e+03 0.0 0.0 9.0
21 -1 0 0 103 101  0.000000e+00  0.000000e+00 -2.213902e+03  2.213902e+03 0.0 0.0 9.0
22  1 1 2   0   0  7.849515e+01  1.472400e+03 -1.728355e+03  2.271857e+03 0.0 0.0 9.0
 2  1 1 2 103   0 -7.849515e+01 -1.472400e+03  2.328488e+03  2.756080e+03 0.0022 0.0 9.0
#pdf 2 21 4.329285e-01 3.406004e-01 5000.0 1.150446e-01 2.018726e-01
</event>
<event>
4 7 1.0 5000.0 7.905138e-03 7.739137e-02
21 -1 0 0 103 101  0.000000e+00  0.000000e+00  5.321729e+03  5.321729e+03 0.0 0.0 9.0
 2 -1 0 0 101   0  0.000000e+00  0.000000e+00 -8.847424e+02  8.847424e+02 0.0 0.0 9.0
 2  1 1 2 103   0 -9.191847e+02 -1.007930e+03  4.631812e+03  4.828509e+03 0.0022 0.0 9.0
22  1 1 2   0   0  9.191847e+02  1.007930e+03 -1.948252e+02  1.377962e+03 0.0 0.0 9.0
#pdf 21 2 8.187275e-01 1.361142e-01 5000.0 5.861960e-06 3.044507e-01
</event>
<event>
4 7 1.0 5000.0 7.905138e-03 7.739137e-02
 2 -1 0 0 101   0  0.000000e+00  0.000000e+00  2.724279e+03  2.724279e+03 0.0 0.0 9.0
21 -1 0 0 103 101  0.000000e+00  0.000000e+00 -2.359874e+03  2.359874e+03 0.0 0.0 9.0
22  1 1 2   0   0  1.308517e+03 -4.306598e+02 -1.951965e+03  2.389111e+03 0.0 0.0 9.0
 2  1 1 2 103   0 -1.308517e+03  4.306598e+02  2.316370e+03  2.695042e+03 0.0022 0.0 9.0
#pdf 2 21 4.191199e-01 3.630575e-01 5000.0 1.261164e-01 1.780003e-01
</event>
<event>
4 7 1.0 5000.0 7.905138e-03 7.739137e-02
21 -1 0 0 103 101  0.000000e+00  0.000000e+00  1.682779e+03  1.682779e+03 0.0 0.0 9.0
 2 -1 0 0 101   0  0.000000e+00  0.000000e+00 -3.610409e+03  3.610409e+03 0.0 0.0 9.0
22  1 1 2   0   0 -1.491806e+02 -1.328777e+03  1.259513e+03  1.836920e+03 0.0 0.0 9.0
 2  1 1 2 103   0  1.491806e+02  1.328777e+03 -3.187143e+03  3.456267e+03 0.0022 0.0 9.0
#pdf 21 2 2.588891e-01 5.554475e-01 5000.0 5.973366e-02 1.275979e-03
</event>
<event>
4 7 1.0 5000.0 7.905138e-03 7.739137e-02
 2 -1 0 0 101   0  0.000000e+00  0.000000e+00  2.809276e+03  2.809276e+03 0.0 0.0 9.0
21 -1 0 0 103 101  0.000000e+00  0.000000e+00 -2.330598e+03  2.330598e+03 0.0 0.0 9.0
 2  1 1 2 103   0 -1.434388e+03 -9.289365e+02 -1.673416e+03  2.391801e+03 0.0022 0.0 9.0
22  1 1 2   0   0  1.434388e+03  9.289365e+02  2.152094e+03  2.748072e+03 0.0 0.0 9.0
#pdf 2 21 4.321962e-01 3.585535e-01 5000.0 1.156138e-01 1.826489e-01
</event>
<event>
4 7 1.0 5000.0 7.905138e-03 7.739137e-02
21 -1 0 0 103 101  0.000000e+00  0.000000e+00  1.444932e+03  1.444932e+03 0.0 0.0 9.0
 2 -1 0 0 101   0  0.000000e+00  0.000000e+00 -4.212828e+03  4.212828e+03 0.0 0.0 9.0
 2  1 1 2 103   0  3.566633e+02 -1.113178e+03 -3.875186e+03  4.047646e+03 0.0022 0.0 9.0
22  1 1 2   0   0 -3.566633e+02  1.113178e+03  1.107290e+03  1.610113e+03 0.0 0.0 9.0
#pdf 21 2 2.222972e-01 6.481273e-01 5000.0 9.445578e-02 2.862457e-04
</event>
<event>
4 7 1.0 5000.0 7.905138e-03 7.739137e-02
 2 -1 0 0 101   0  0.000000e+00  0.000000e+00  3.960476e+03  3.960476e+03 0.0 0.0 9.0
21 -1 0 0 103 101  0.000000e+00  0.000000e+00 -1.569766e+03  1.569766e+03 0.0 0.0 9.0
22  1 1 2   0   0 -2.086872e+03 -1.364468e+03  1.179157e+03  2.758118e+03 0.0 0.0 9.0
 2  1 1 2 103   0  2.086872e+03  1.364468e+03  1.211553e+03  2.772123e+03 0.0022 0.0 9.0
#pdf 2 21 6.093039e-01 2.415024e-01 5000.0 2.624538e-02 3.250370e-01
</event>
<event>
4 7 1.0 5000.0 7.905138e-03 7.739137e-02
 2 -1 0 0 101   0  0.000000e+00  0.000000e+00  2.928602e+03  2.928602e+03 0.0 0.0 9.0
21 -1 0 0 103 101  0.000000e+00  0.000000e+00 -2.276368e+03  2.276368e+03 0.0 0.0 9.0
22  1 1 2   0   0  1.006954e+03 -1.939795e+03  1.711744e+03  2.776117e+03 0.0 0.0 9.0
 2  1 1 2 103   0 -1.006954e+03  1.939795e+03 -1.059510e+03  2.428852e+03 0.0022 0.0 9.0
#pdf 2 21 4.505541e-01 3.502104e-01 5000.0 1.018646e-01 1.914434e-01
</event>
<event>
4 7 1.0 5000.0 7.905138e-03 7.739137e-02
 2 -1 0 0 101   0  0.000000e+00  0.000000e+00  3.709639e+03  3.709639e+03 0.0 0.0 9.0
21 -1 0 0 103 101  0.000000e+00  0.000000e+00 -1.693935e+03  1.693935e+03 0.0 0.0 9.0
 2  1 1 2 103   0 -2.294410e+02 -2.190341e+03 -2.826491e+02  2.220389e+03 0.0022 0.0 9.0
22  1 1 2   0   0  2.294410e+02  2.190341e+03  2.298353e+03  3.183184e+03 0.0 0.0 9.0
#pdf 2 21 5.707136e-01 2.606053e-01 5000.0 3.836799e-02 2.995056e-01
</event>
<event>
4 7 1.0 5000.0 7.905138e-03 7.739137e-02
21 -1 0 0 103 101  0.000000e+00  0.000000e+00  2.998465e+03  2.998465e+03 0.0 0.0 9.0
 2 -1 0 0 101   0  0.000000e+00  0.000000e+00 -2.044077e+03  2.044077e+03 0.0 0.0 9.0
 2  1 1 2 103   0 -1.471860e+03 -1.971087e+03  1.936148e+02  2.467599e+03 0.0022 0.0 9.0
22  1 1 2   0   0  1.471860e+03  1.971087e+03  7.607729e+02  2.574943e+03 0.0 0.0 9.0
#pdf 21 2 4.613023e-01 3.144734e-01 5000.0 4.752421e-03 3.017741e-02
</event>
<event>
4 7 1.0 5000.0 7.905138e-03 7.739137e-02
21 -1 0 0 103 101  0.000000e+00  0.000000e+00  2.829438e+03  2.829438e+03 0.0 0.0 9.0
 2 -1 0 0 101   0  0.000000e+00  0.000000e+00 -2.247893e+03  2.247893e+03 0.0 0.0 9.0
 2  1 1 2 103   0  1.481956e+03 -1.141820e+03 -1.411682e+03  2.343671e+03 0.0022 0.0 9.0
22  1 1 2   0   0 -1.481956e+03  1.141820e+03  1.993226e+03  2.733660e+03 0.0 0.0 9.0
#pdf 21 2 4.352982e-01 3.458297e-01 5000.0 6.683094e-03 2.054476e-02
</event>
<event>
4 7 1.0 5000.0 7.905138e-03 7.739137e-02
 2 -1 0 0 101   0  0.000000e+00  0.000000e+00  2.275451e+03  2.275451e+03 0.0 0.0 9.0
21 -1 0 0 103 101  0.000000e+00  0.000000e+00 -2.510614e+03  2.510614e+03 0.0 0.0 9.0
22  1 1 2   0   0  8.183854e+02  1.190340e+03  1.788958e+03  2.299355e+03 0.0 0.0 9.0
 2  1 1 2 103   0 -8.183854e+02 -1.190340e+03 -2.024121e+03  2.486711e+03 0.0022 0.0 9.0
#pdf 2 21 3.500695e-01 3.862484e-01 5000.0 1.915941e-01 1.552055e-01
</event>
<event>
4 7 1.0 5000.0 7.905138e-03 7.739137e-02
21 -1 0 0 103 101  0.000000e+00  0.000000e+00  1.728207e+03  1.728207e+03 0.0 0.0 9.0
 2 -1 0 0 101   0  0.000000e+00  0.000000e+00 -3.516764e+03  3.516764e+03 0.0 0.0 9.0
 2  1 1 2 103   0  9.248975e+02  1.479729e+03  9.582101e+02  1.990779e+03 0.0022 0.0 9.0
22  1 1 2   0   0 -9.248975e+02 -1.479729e+03 -2.746767e+03  3.254192e+03 0.0 0.0 9.0
#pdf 21 2 2.658779e-01 5.410405e-01 5000.0 5.475790e-02 1.575903e-03
</event>
<event>
4 7 1.0 5000.0 7.905138e-03 7.739137e-02
 2 -1 0 0 101   0  0.000000e+00  0.000000e+00  3.357682e+03  3.357682e+03 0.0 0.0 9.0
21 -1 0 0 103 101  0.000000e+00  0.000000e+00 -1.860216e+03  1.860216e+03 0.0 0.0 9.0
 2  1 1 2 103   0  2.007202e+03 -1.260327e+03  1.576476e+03  2.846500e+03 0.0022 0.0 9.0
22  1 1 2   0   0 -2.007202e+03  1.260327e+03 -7.900907e+01  2.371398e+03 0.0 0.0 9.0
#pdf 2 21 5.165665e-01 2.861870e-01 5000.0 6.166579e-02 2.664076e-01
</event>
<event>
4 7 1.0 5000.0 7.905138e-03 7.739137e-02
 2 -1 0 0 101   0  0.000000e+00  0.000000e+00  2.415285e+03  2.415285e+03 0.0 0.0 9.0
21 -1 0 0 103 101  0.000000e+00  0.000000e+00 -2.657953e+03  2.657953e+03 0.0 0.0 9.0
22  1 1 2   0   0  1.883727e+03  6.640697e+02  1.439393e+03  2.461965e+03 0.0 0.0 9.0
 2  1 1 2 103   0 -1.883727e+03 -6.640697e+02 -1.682061e+03  2.611273e+03 0.0022 0.0 9.0
#pdf 2 21 3.715823e-01 4.089158e-01 5000.0 1.693895e-01 1.347392e-01
</event>
<event>
4 7 1.0 5000.0 7.905138e-03 7.739137e-02
21 -1 0 0 103 101  0.000000e+00  0.000000e+00  1.431373e+03  1.431373e+03 0.0 0.0 9.0
 2 -1 0 0 101   0  0.000000e+00  0.000000e+00 -4.381359e+03  4.381359e+03 0.0 0.0 9.0
 2  1 1 2 103   0  1.832391e+03  1.061730e+03  7.618813e+01  2.119135e+03 0.0022 0.0 9.0
22  1 1 2   0   0 -1.832391e+03 -1.061730e+03 -3.026175e+03  3.693597e+03 0.0 0.0 9.0
#pdf 21 2 2.202112e-01 6.740553e-01 5000.0 9.701376e-02 1.788051e-04
</event>
<event>
4 7 1.0 5000.0 7.905138e-03 7.739137e-02
 2 -1 0 0 101   0  0.000000e+00  0.000000e+00  1.613955e+03  1.613955e+03 0.0 0.0 9.0
21 -1 0 0 103 101  0.000000e+00  0.000000e+00 -3.873833e+03  3.873833e+03 0.0 0.0 9.0
22  1 1 2   0   0 -1.340765e+03  4.248039e+02  1.138738e+03  1.809650e+03 0.0 0.0 9.0
 2  1 1 2 103   0  1.340765e+03 -4.248039e+02 -3.398616e+03  3.678138e+03 0.0022 0.0 9.0
#pdf 2 21 2.483008e-01 5.959744e-01 5000.0 3.158907e-01 3.005208e-02
</event>
<event>
4 7 1.0 5000.0 7.905138e-03 7.739137e-02
21 -1 0 0 103 101  0.000000e+00  0.000000e+00  1.701302e+03  1.701302e+03 0.0 0.0 9.0
 2 -1 0 0 101   0  0.000000e+00  0.000000e+00 -3.369558e+03  3.369558e+03 0.0 0.0 9.0
 2  1 1 2 103   0 -4.868897e+01 -2.201686e+03  1.608567e+02  2.208091e+03 0.0022 0.0 9.0
22  1 1 2   0   0  4.868897e+01  2.201686e+03 -1.829113e+03  2.862769e+03 0.0 0.0 9.0
#pdf 21 2 2.617388e-01 5.183936e-01 5000.0 5.764154e-02 2.180666e-03
</event>
<event>
4 7 1.0 5000.0 7.905138e-03 7.739137e-02
21 -1 0 0 103 101  0.000000e+00  0.000000e+00  1.380056e+03  1.380056e+03 0.0 0.0 9.0
 2 -1 0 0 101   0  0.000000e+00  0.000000e+00 -3.265275e+03  3.265275e+03 0.0 0.0 9.0
22  1 1 2   0   0  3.083603e+02 -1.948149e+03 -8.393002e+01  1.974187e+03 0.0 0.0 9.0
 2  1 1 2 103   0 -3.083603e+02  1.948149e+03 -1.801289e+03  2.671144e+03 0.0022 0.0 9.0
#pdf 21 2 2.123163e-01 5.023500e-01 5000.0 1.073152e-01 2.728058e-03
</event>
<event>
4 7 1.0 5000.0 7.905138e-03 7.739137e-02
21 -1 0 0 103 101  0.000000e+00  0.000000e+00  3.923264e+03  3.923264e+03 0.0 0.0 9.0
 2 -1 0 0 101   0  0.000000e+00  0.000000e+00 -1.600633e+03  1.600633e+03 0.0 0.0 9.0
 2  1 1 2 103   0  1.804939e+03 -1.715456e+03  1.471314e+03  2.892293e+03 0.0022 0.0 9.0
22  1 1 2   0   0 -1.804939e+03  1.715456e+03  8.513166e+02  2.631603e+03 0.0 0.0 9.0
#pdf 21 2 6.035790e-01 2.462512e-01 5000.0 6.062114e-04 6.985283e-02
</event>
<event>
4 7 1.0 5000.0 7.905138e-03 7.739137e-02
21 -1 0 0 103 101  0.000000e+00  0.000000e+00  3.791675e+03  3.791675e+03 0.0 0.0 9.0
 2 -1 0 0 101   0  0.000000e+00  0.000000e+00 -1.634879e+03  1.634879e+03 0.0 0.0 9.0
 2  1 1 2 103   0 -1.740002e+03 -1.235078e+03 -3.197016e+02  2.157599e+03 0.0022 0.0 9.0
22  1 1 2   0   0  1.740002e+03  1.235078e+03  2.476498e+03  3.268955e+03 0.0 0.0 9.0
#pdf 21 2 5.833347e-01 2.515198e-01 5000.0 8.346661e-04 6.549615e-02
</event>
<event>
4 7 1.0 5000.0 7.905138e-03 7.739137e-02
21 -1 0 0 103 101  0.000000e+00  0.000000e+00  2.661812e+03  2.661812e+03 0.0 0.0 9.0
 2 -1 0 0 101   0  0.000000e+00  0.000000e+00 -2.448325e+03  2.448325e+03 0.0 0.0 9.0
 2  1 1 2 103   0  1.464918e+03  2.077831e+03  3.384921e+02  2.564750e+03 0.0022 0.0 9.0
22  1 1 2   0   0 -1.464918e+03 -2.077831e+03 -1.250054e+02  2.545387e+03 0.0 0.0 9.0
#pdf 21 2 4.095095e-01 3.766654e-01 5000.0 9.291654e-03 1.404433e-02
</event>
<event>
4 7 1.0 5000.0 7.905138e-03 7.739137e-02
21 -1 0 0 103 101  0.000000e+00  0.000000e+00  1.733372e+03  1.733372e+03 0.0 0.0 9.0
 2 -1 0 0 101   0  0.000000e+00  0.000000e+00 -3.411454e+03  3.411454e+03 0.0 0.0 9.0
 2  1 1 2 103   0  2.221122e+03  5.491750e+02  3.222386e+01  2.288234e+03 0.0022 0.0 9.0
22  1 1 2   0   0 -2.221122e+03 -5.491750e+02 -1.710306e+03  2.856592e+03 0.0 0.0 9.0
#pdf 21 2 2.666726e-01 5.248390e-01 5000.0 5.422326e-02 1.990775e-03
</event>
<event>
4 7 1.0 5000.0 7.905138e-03 7.739137e-02
21 -1 0 0 103 101  0.000000e+00  0.000000e+00  3.414991e+03  3.414991e+03 0.0 0.0 9.0
 2 -1 0 0 101   0  0.000000e+00  0.000000e+00 -1.822738e+03  1.822738e+03 0.0 0.0 9.0
22  1 1 2   0   0 -4.586598e+02 -2.209278e+03  1.913604e+03  2.958574e+03 0.0 0.0 9.0
 2  1 1 2 103   0  4.586598e+02  2.209278e+03 -3.213505e+02  2.279155e+03 0.0022 0.0 9.0
#pdf 21 2 5.253833e-01 2.804212e-01 5000.0 1.975513e-03 4.578654e-02
</event>
<event>
4 7 1.0 5000.0 7.905138e-03 7.739137e-02
 2 -1 0 0 101   0  0.000000e+00  0.000000e+00  1.785638e+03  1.785638e+03 0.0 0.0 9.0
21 -1 0 0 103 101  0.000000e+00  0.000000e+00 -2.632464e+03  2.632464e+03 0.0 0.0 9.0
 2  1 1 2 103   0 -1.406745e+03 -1.519461e+03 -1.078153e+03  2.334547e+03 0.0022 0.0 9.0
22  1 1 2   0   0  1.406745e+03  1.519461e+03  2.313276e+02  2.083556e+03 0.0 0.0 9.0
#pdf 2 21 2.747136e-01 4.049945e-01 5000.0 2.810687e-01 1.381496e-01
</event>
<event>
4 7 1.0 5000.0 7.905138e-03 7.739137e-02
 2 -1 0 0 101   0  0.000000e+00  0.000000e+00  3.320038e+03  3.320038e+03 0.0 0.0 9.0
21 -1 0 0 103 101  0.000000e+00  0.000000e+00 -1.923588e+03  1.923588e+03 0.0 0.0 9.0
 2  1 1 2 103   0 -8.479646e+02  1.438001e+03 -1.270091e+03  2.097623e+03 0.0022 0.0 9.0
22  1 1 2   0   0  8.479646e+02 -1.438001e+03  2.666541e+03  3.146003e+03 0.0 0.0 9.0
#pdf 2 21 5.107751e-01 2.959366e-01 5000.0 6.464432e-02 2.541941e-01
</event>
<event>
4 7 1.0 5000.0 7.905138e-03 7.739137e-02
 2 -1 0 0 101   0  0.000000e+00  0.000000e+00  1.561747e+03  1.561747e+03 0.0 0.0 9.0
21 -1 0 0 103 101  0.000000e+00  0.000000e+00 -3.867122e+03  3.867122e+03 0.0 0.0 9.0
22  1 1 2   0   0  1.827967e+03  1.081154e+03 -2.518524e+03  3.294438e+03 0.0 0.0 9.0
 2  1 1 2 103   0 -1.827967e+03 -1.081154e+03  2.131495e+02  2.134430e+03 0.0022 0.0 9.0
#pdf 2 21 2.402688e-01 5.949418e-01 5000.0 3.267034e-01 3.036290e-02
</event>
<event>
4 7 1.0 5000.0 7.905138e-03 7.739137e-02
 2 -1 0 0 101   0  0.000000e+00  0.000000e+00  1.849738e+03  1.849738e+03 0.0 0.0 9.0
21 -1 0 0 103 101  0.000000e+00  0.000000e+00 -3.413368e+03  3.413368e+03 0.0 0.0 9.0
22  1 1 2   0   0  2.185118e+03  1.351187e+02 -2.073352e+03  3.015259e+03 0.0 0.0 9.0
 2  1 1 2 103   0 -2.185118e+03 -1.351187e+02  5.097219e+02  2.247847e+03 0.0022 0.0 9.0
#pdf 2 21 2.845751e-01 5.251335e-01 5000.0 2.684505e-01 5.744580e-02
</event>
<event>
4 7 1.0 5000.0 7.905138e-03 7.739137e-02
 2 -1 0 0 101   0  0.000000e+00  0.000000e+00  2.145979e+03  2.145979e+03 0.0 0.0 9.0
21 -1 0 0 103 101  0.000000e+00  0.000000e+00 -2.943008e+03  2.943008e+03 0.0 0.0 9.0
 2  1 1 2 103   0 -2.015718e+03  1.262423e+03  4.232956e+02  2.415783e+03 0.0022 0.0 9.0
22  1 1 2   0   0  2.015718e+03 -1.262423e+03 -1.220324e+03  2.673204e+03 0.0 0.0 9.0
#pdf 2 21 3.301507e-01 4.527704e-01 5000.0 2.135529e-01 1.002858e-01
</event>
<event>
4 7 1.0 5000.0 7.905138e-03 7.739137e-02
 2 -1 0 0 101   0  0.000000e+00  0.000000e+00  1.620724e+03  1.620724e+03 0.0 0.0 9.0
21 -1 0 0 103 101  0.000000e+00  0.000000e+00 -3.873830e+03  3.873830e+03 0.0 0.0 9.0
 2  1 1 2 103   0 -1.807085e+03  1.448437e+03 -2.175274e+03  3.177317e+03 0.0022 0.0 9.0
22  1 1 2   0   0  1.807085e+03 -1.448437e+03 -7.783205e+01  2.317237e+03 0.0 0.0 9.0
#pdf 2 21 2.493422e-01 5.959739e-01 5000.0 3.144855e-01 3.005223e-02
</event>
<event>
4 7 1.0 5000.0 7.905138e-03 7.739137e-02
21 -1 0 0 103 101  0.000000e+00  0.000000e+00  3.750452e+03  3.750452e+03 0.0 0.0 9.0
 2 -1 0 0 101   0  0.000000e+00  0.000000e+00 -1.675341e+03  1.675341e+03 0.0 0.0 9.0
 2  1 1 2 103   0  7.048866e+01 -2.460430e+03  1.550474e+03  2.909064e+03 0.0022 0.0 9.0
22  1 1 2   0   0 -7.048866e+01  2.460430e+03  5.246370e+02  2.516729e+03 0.0 0.0 9.0
#pdf 21 2 5.769926e-01 2.577448e-01 5000.0 9.204074e-04 6.059704e-02
</event>
<event>
4 7 1.0 5000.0 7.905138e-03 7.739137e-02
21 -1 0 0 103 101  0.000000e+00  0.000000e+00  3.042995e+03  3.042995e+03 0.0 0.0 9.0
 2 -1 0 0 101   0  0.000000e+00  0.000000e+00 -2.046634e+03  2.046634e+03 0.0 0.0 9.0
 2  1 1 2 103   0 -1.716951e+03  1.769688e+03  8.907165e+02  2.621659e+03 0.0022 0.0 9.0
22  1 1 2   0   0  1.716951e+03 -1.769688e+03  1.056441e+02  2.467971e+03 0.0 0.0 9.0
#pdf 21 2 4.681531e-01 3.148668e-01 5000.0 4.340178e-03 3.003084e-02
</event>
<event>
4 7 1.0 5000.0 7.905138e-03 7.739137e-02
 2 -1 0 0 101   0  0.000000e+00  0.000000e+00  2.158087e+03  2.158087e+03 0.0 0.0 9.0
21 -1 0 0 103 101  0.000000e+00  0.000000e+00 -2.561498e+03  2.561498e+03 0.0 0.0 9.0
22  1 1 2   0   0 -2.253136e+02  7.344667e+02 -2.431968e+03  2.550427e+03 0.0 0.0 9.0
 2  1 1 2 103   0  2.253136e+02 -7.344667e+02  2.028557e+03  2.169159e+03 0.0022 0.0 9.0
#pdf 2 21 3.320134e-01 3.940767e-01 5000.0 2.114429e-01 1.479392e-01
</event>
<event>
4 7 1.0 5000.0 7.905138e-03 7.739137e-02
 2 -1 0 0 101   0  0.000000e+00  0.000000e+00  2.765036e+03  2.765036e+03 0.0 0.0 9.0
21 -1 0 0 103 101  0.000000e+00  0.000000e+00 -2.302615e+03  2.302615e+03 0.0 0.0 9.0
22  1 1 2   0   0  1.604711e+03  1.942876e+03  1.004798e+02  2.521897e+03 0.0 0.0 9.0
 2  1 1 2 103   0 -1.604711e+03 -1.942876e+03  3.619406e+02  2.545755e+03 0.0022 0.0 9.0
#pdf 2 21 4.253901e-01 3.542485e-01 5000.0 1.210002e-01 1.871562e-01
</event>
<event>
4 7 1.0 5000.0 7.905138e-03 7.739137e-02
 2 -1 0 0 101   0  0.000000e+00  0.000000e+00  2.280115e+03  2.280115e+03 0.0 0.0 9.0
21 -1 0 0 103 101  0.000000e+00  0.000000e+00 -2.532665e+03  2.532665e+03 0.0 0.0 9.0
 2  1 1 2 103   0  6.089451e+02 -1.042551e+03 -2.206890e+03  2.515570e+03 0.0022 0.0 9.0
22  1 1 2   0   0 -6.089451e+02  1.042551e+03  1.954340e+03  2.297210e+03 0.0 0.0 9.0
#pdf 2 21 3.507869e-01 3.896407e-01 5000.0 1.908278e-01 1.520302e-01
</event>
<event>
4 7 1.0 5000.0 7.905138e-03 7.739137e-02
21 -1 0 0 103 101  0.000000e+00  0.000000e+00  1.880978e+03  1.880978e+03 0.0 0.0 9.0
 2 -1 0 0 101   0  0.000000e+00  0.000000e+00 -2.567614e+03  2.567614e+03 0.0 0.0 9.0
22  1 1 2   0   0  2.140940e+03  4.959779e+02 -3.403339e+02  2.223835e+03 0.0 0.0 9.0
 2  1 1 2 103   0 -2.140940e+03 -4.959779e+02 -3.463014e+02  2.224757e+03 0.0022 0.0 9.0
#pdf 21 2 2.893813e-01 3.950175e-01 5000.0 4.104546e-02 1.115692e-02
</event>
<event>
4 7 1.0 5000.0 7.905138e-03 7.739137e-02
 2 -1 0 0 101   0  0.000000e+00  0.000000e+00  3.944863e+03  3.944863e+03 0.0 0.0 9.0
21 -1 0 0 103 101  0.000000e+00  0.000000e+00 -1.560748e+03  1.560748e+03 0.0 0.0 9.0
 2  1 1 2 103   0  9.352711e+02  9.078489e+02 -1.150358e+03  1.738461e+03 0.0022 0.0 9.0
22  1 1 2   0   0 -9.352711e+02 -9.078489e+02  3.534473e+03  3.767150e+03 0.0 0.0 9.0
#pdf 2 21 6.069020e-01 2.401151e-01 5000.0 2.690438e-02 3.269114e-01
</event>
<event>
4 7 1.0 5000.0 7.905138e-03 7.739137e-02
 2 -1 0 0 101   0  0.000000e+00  0.000000e+00  2.085550e+03  2.085550e+03 0.0 0.0 9.0
21 -1 0 0 103 101  0.000000e+00  0.000000e+00 -2.851993e+03  2.851993e+03 0.0 0.0 9.0
 2  1 1 2 103   0 -2.364500e+03 -5.507761e+02 -1.485181e+02  2.432339e+03 0.0022 0.0 9.0
22  1 1 2   0   0  2.364500e+03  5.507761e+02 -6.179257e+02  2.505204e+03 0.0 0.0 9.0
#pdf 2 21 3.208538e-01 4.387682e-01 5000.0 2.242527e-01 1.105671e-01
</event>
<event>
4 7 1.0 5000.0 7.905138e-03 7.739137e-02
21 -1 0 0 103 101  0.000000e+00  0.000000e+00  1.788815e+03  1.788815e+03 0.0 0.0 9.0
 2 -1 0 0 101   0  0.000000e+00  0.000000e+00 -3.617365e+03  3.617365e+03 0.0 0.0 9.0
 2  1 1 2 103   0 -1.451456e+01 -2.514135e+03 -5.031220e+02  2.564024e+03 0.0022 0.0 9.0
22  1 1 2   0   0  1.451456e+01  2.514135e+03 -1.325428e+03  2.842155e+03 0.0 0.0 9.0
#pdf 21 2 2.752023e-01 5.565176e-01 5000.0 4.882227e-02 1.256269e-03
</event>
<event>
4 7 1.0 5000.0 7.905138e-03 7.739137e-02
21 -1 0 0 103 101  0.000000e+00  0.000000e+00  3.078955e+03  3.078955e+03 0.0 0.0 9.0
 2 -1 0 0 101   0  0.000000e+00  0.000000e+00 -2.061513e+03  2.061513e+03 0.0 0.0 9.0
 2  1 1 2 103   0 -7.318068e+02  1.176176e+03 -1.638121e+03  2.145314e+03 0.0022 0.0 9.0
22  1 1 2   0   0  7.318068e+02 -1.176176e+03  2.655564e+03  2.995154e+03 0.0 0.0 9.0
#pdf 21 2 4.736854e-01 3.171558e-01 5000.0 4.031228e-03 2.919418e-02
</event>
<event>
4 7 1.0 5000.0 7.905138e-03 7.739137e-02
 2 -1 0 0 101   0  0.000000e+00  0.000000e+00  1.404032e+03  1.404032e+03 0.0 0.0 9.0
21 -1 0 0 103 101  0.000000e+00  0.000000e+00 -4.363453e+03  4.363453e+03 0.0 0.0 9.0
 2  1 1 2 103   0  4.492739e+02  1.020733e+03  1.094726e+03  1.562743e+03 0.0022 0.0 9.0
22  1 1 2   0   0 -4.492739e+02 -1.020733e+03 -4.054148e+03  4.204742e+03 0.0 0.0 9.0
#pdf 2 21 2.160049e-01 6.713005e-01 5000.0 3.598991e-01 1.300095e-02
</event>
<event>
4 7 1.0 5000.0 7.905138e-03 7.739137e-02
21 -1 0 0 103 101  0.000000e+00  0.000000e+00  2.338928e+03  2.338928e+03 0.0 0.0 9.0
 2 -1 0 0 101   0  0.000000e+00  0.000000e+00 -2.560498e+03  2.560498e+03 0.0 0.0 9.0
 2  1 1 2 103   0  2.318184e+03 -7.831460e+02 -1.499105e+02  2.451482e+03 0.0022 0.0 9.0
22  1 1 2   0   0 -2.318184e+03  7.831460e+02 -7.165991e+01  2.447944e+03 0.0 0.0 9.0
#pdf 21 2 3.598351e-01 3.939228e-01 5000.0 1.728335e-02 1.131142e-02
</event>
<event>
4 7 1.0 5000.0 7.905138e-03 7.739137e-02
 2 -1 0 0 101   0  0.000000e+00  0.000000e+00  1.928835e+03  1.928835e+03 0.0 0.0 9.0
21 -1 0 0 103 101  0.000000e+00  0.000000e+00 -3.144088e+03  3.144088e+03 0.0 0.0 9.0
22  1 1 2   0   0 -1.757990e+03 -1.700557e+03 -3.126735e+02  2.465804e+03 0.0 0.0 9.0
 2  1 1 2 103   0  1.757990e+03  1.700557e+03 -9.025796e+02  2.607120e+03 0.0022 0.0 9.0
#pdf 2 21 2.967439e-01 4.837059e-01 5000.0 2.531970e-01 7.992584e-02
</event>
<event>
4 7 1.0 5000.0 7.905138e-03 7.739137e-02
21 -1 0 0 103 101  0.000000e+00  0.000000e+00  1.165313e+03  1.165313e+03 0.0 0.0 9.0
 2 -1 0 0 101   0  0.000000e+00  0.000000e+00 -5.108919e+03  5.108919e+03 0.0 0.0 9.0
22  1 1 2   0   0 -6.558621e+02  2.328167e+03 -1.559218e+03  2.877790e+03 0.0 0.0 9.0
 2  1 1 2 103   0  6.558621e+02 -2.328167e+03 -2.384388e+03  3.396442e+03 0.0022 0.0 9.0
#pdf 21 2 1.792790e-01 7.859875e-01 5000.0 1.656961e-01 1.502516e-05
</event>
<event>
4 7 1.0 5000.0 7.905138e-03 7.739137e-02
 2 -1 0 0 101   0  0.000000e+00  0.000000e+00  4.704027e+03  4.704027e+03 0.0 0.0 9.0
21 -1 0 0 103 101  0.000000e+00  0.000000e+00 -1.361515e+03  1.361515e+03 0.0 0.0 9.0
 2  1 1 2 103   0  2.330151e+03 -7.361589e+02  8.826297e+02  2.598186e+03 0.0022 0.0 9.0
22  1 1 2   0   0 -2.330151e+03  7.361589e+02  2.459882e+03  3.467356e+03 0.0 0.0 9.0
#pdf 2 21 7.236965e-01 2.094638e-01 5000.0 6.392534e-03 3.689554e-01
</event>
<event>
4 7 1.0 5000.0 7.905138e-03 7.739137e-02
21 -1 0 0 103 101  0.000000e+00  0.000000e+00  2.964312e+03  2.964312e+03 0.0 0.0 9.0
 2 -1 0 0 101   0  0.000000e+00  0.000000e+00 -2.141481e+03  2.141481e+03 0.0 0.0 9.0
 2  1 1 2 103   0  2.108492e+02 -2.509468e+03  4.907662e+02  2.565685e+03 0.0022 0.0 9.0
22  1 1 2   0   0 -2.108492e+02  2.509468e+03  3.320651e+02  2.540109e+03 0.0 0.0 9.0
#pdf 21 2 4.560481e-01 3.294586e-01 5000.0 5.096835e-03 2.511214e-02
</event>
<event>
4 7 1.0 5000.0 7.905138e-03 7.739137e-02
21 -1 0 0 103 101  0.000000e+00  0.000000e+00  2.179346e+03  2.179346e+03 0.0 0.0 9.0
 2 -1 0 0 101   0  0.000000e+00  0.000000e+00 -2.815058e+03  2.815058e+03 0.0 0.0 9.0
22  1 1 2   0   0 -1.017885e+03  1.516456e+03  1.368963e+03  2.282496e+03 0.0 0.0 9.0
 2  1 1 2 103   0  1.017885e+03 -1.516456e+03 -2.004674e+03  2.711908e+03 0.0022 0.0 9.0
#pdf 21 2 3.352840e-01 4.330858e-01 5000.0 2.337958e-02 6.874598e-03
</event>
<event>
4 7 1.0 5000.0 7.905138e-03 7.739137e-02
21 -1 0 0 103 101  0.000000e+00  0.000000e+00  1.655704e+03  1.655704e+03 0.0 0.0 9.0
 2 -1 0 0 101   0  0.000000e+00  0.000000e+00 -3.679144e+03  3.679144e+03 0.0 0.0 9.0
22  1 1 2   0   0  1.163041e+03  1.425802e+03 -2.789552e+03  3.341733e+03 0.0 0.0 9.0
 2  1 1 2 103   0 -1.163041e+03 -1.425802e+03  7.661121e+02  1.993114e+03 0.0022 0.0 9.0
#pdf 21 2 2.547236e-01 5.660221e-01 5000.0 6.293485e-02 1.089410e-03
</event>
<event>
4 7 1.0 5000.0 7.905138e-03 7.739137e-02
21 -1 0 0 103 101  0.000000e+00  0.000000e+00  2.898563e+03  2.898563e+03 0.0 0.0 9.0
 2 -1 0 0 101   0  0.000000e+00  0.000000e+00 -2.159366e+03  2.159366e+03 0.0 0.0 9.0
 2  1 1 2 103   0 -1.043000e+03  3.482120e+02  2.641200e+03  2.860950e+03 0.0022 0.0 9.0
22  1 1 2   0   0  1.043000e+03 -3.482120e+02 -1.902003e+03  2.196979e+03 0.0 0.0 9.0
#pdf 21 2 4.459327e-01 3.322102e-01 5000.0 5.814635e-03 2.427965e-02
</event>
<event>
4 7 1.0 5000.0 7.905138e-03 7.739137e-02
21 -1 0 0 103 101  0.000000e+00  0.000000e+00  3.556337e+03  3.556337e+03 0.0 0.0 9.0
 2 -1 0 0 101   0  0.000000e+00  0.000000e+00 -1.698103e+03  1.698103e+03 0.0 0.0 9.0
22  1 1 2   0   0 -1.365256e+03 -7.154657e+02  2.975297e+03  3.350852e+03 0.0 0.0 9.0
 2  1 1 2 103   0  1.365256e+03  7.154657e+02 -1.117063e+03  1.903588e+03 0.0022 0.0 9.0
#pdf 21 2 5.471288e-01 2.612466e-01 5000.0 1.442260e-03 5.799672e-02
</event>
<event>
4 7 1.0 5000.0 7.905138e-03 7.739137e-02
 2 -1 0 0 101   0  0.000000e+00  0.000000e+00  2.096945e+03  2.096945e+03 0.0 0.0 9.0
21 -1 0 0 103 101  0.000000e+00  0.000000e+00 -2.980008e+03  2.980008e+03 0.0 0.0 9.0
22  1 1 2   0   0  2.123191e+03 -1.185799e+03 -1.029154e+03  2.640685e+03 0.0 0.0 9.0
 2  1 1 2 103   0 -2.123191e+03  1.185799e+03  1.460918e+02  2.436268e+03 0.0022 0.0 9.0
#pdf 2 21 3.226070e-01 4.584627e-01 5000.0 2.222150e-01 9.629314e-02
</event>
<event>
4 7 1.0 5000.0 7.905138e-03 7.739137e-02
 2 -1 0 0 101   0  0.000000e+00  0.000000e+00  3.793142e+03  3.793142e+03 0.0 0.0 9.0
21 -1 0 0 103 101  0.000000e+00  0.000000e+00 -1.636094e+03  1.636094e+03 0.0 0.0 9.0
22  1 1 2   0   0 -1.973678e+03  1.516649e+03  1.189153e+03  2.758571e+03 0.0 0.0 9.0
 2  1 1 2 103   0  1.973678e+03 -1.516649e+03  9.678958e+02  2.670665e+03 0.0022 0.0 9.0
#pdf 2 21 5.835603e-01 2.517067e-01 5000.0 3.395165e-02 3.113102e-01
</event>
<event>
4 7 1.0 5000.0 7.905138e-03 7.739137e-02
21 -1 0 0 103 101  0.000000e+00  0.000000e+00  3.532681e+03  3.532681e+03 0.0 0.0 9.0
 2 -1 0 0 101   0  0.000000e+00  0.000000e+00 -1.824959e+03  1.824959e+03 0.0 0.0 9.0
22  1 1 2   0   0 -1.409913e+03  2.298656e+01 -1.373880e+03  1.968738e+03 0.0 0.0 9.0
 2  1 1 2 103   0  1.409913e+03 -2.298656e+01  3.081603e+03  3.388902e+03 0.0022 0.0 9.0
#pdf 21 2 5.434894e-01 2.807629e-01 5000.0 1.521100e-03 4.559402e-02
</event>
<event>
4 7 1.0 5000.0 7.905138e-03 7.739137e-02
 2 -1 0 0 101   0  0.000000e+00  0.000000e+00  2.453948e+03  2.453948e+03 0.0 0.0 9.0
21 -1 0 0 103 101  0.000000e+00  0.000000e+00 -2.523704e+03  2.523704e+03 0.0 0.0 9.0
 2  1 1 2 103   0 -3.222637e+02  2.321683e+03  8.012490e+02  2.477109e+03 0.0022 0.0 9.0
22  1 1 2   0   0  3.222637e+02 -2.321683e+03 -8.710058e+02  2.500544e+03 0.0 0.0 9.0
#pdf 2 21 3.775304e-01 3.882622e-01 5000.0 1.635526e-01 1.533153e-01
</event>
<event>
4 7 1.0 5000.0 7.905138e-03 7.739137e-02
21 -1 0 0 103 101  0.000000e+00  0.000000e+00  2.235247e+03  2.235247e+03 0.0 0.0 9.0
 2 -1 0 0 101   0  0.000000e+00  0.000000e+00 -2.850907e+03  2.850907e+03 0.0 0.0 9.0
 2  1 1 2 103   0 -1.043623e+03 -1.124437e+03 -2.327418e+03  2.787541e+03 0.0022 0.0 9.0
22  1 1 2   0   0  1.043623e+03  1.124437e+03  1.711759e+03  2.298614e+03 0.0 0.0 9.0
#pdf 21 2 3.438842e-01 4.386011e-01 5000.0 2.103935e-02 6.405601e-03
</event>
<event>
4 7 1.0 5000.0 7.905138e-03 7.739137e-02
 2 -1 0 0 101   0  0.000000e+00  0.000000e+00  2.561538e+03  2.561538e+03 0.0 0.0 9.0
21 -1 0 0 103 101  0.000000e+00  0.000000e+00 -2.451785e+03  2.451785e+03 0.0 0.0 9.0
22  1 1 2   0   0  1.127517e+03  1.903806e+03  1.231835e+03  2.532428e+03 0.0 0.0 9.0
 2  1 1 2 103   0 -1.127517e+03 -1.903806e+03 -1.122081e+03  2.480895e+03 0.0022 0.0 9.0
#pdf 2 21 3.940828e-01 3.771976e-01 5000.0 1.479335e-01 1.638762e-01
</event>
<event>
4 7 1.0 5000.0 7.905138e-03 7.739137e-02
 2 -1 0 0 101   0  0.000000e+00  0.000000e+00  1.648511e+03  1.648511e+03 0.0 0.0 9.0
21 -1 0 0 103 101  0.000000e+00  0.000000e+00 -3.744572e+03  3.744572e+03 0.0 0.0 9.0
22  1 1 2   0   0 -5.056652e+02  2.309765e+03 -1.876196e+03  3.018414e+03 0.0 0.0 9.0
 2  1 1 2 103   0  5.056652e+02 -2.309765e+03 -2.198648e+02  2.374668e+03 0.0022 0.0 9.0
#pdf 2 21 2.536170e-01 5.760879e-01 5000.0 3.087590e-01 3.647142e-02
</event>
<event>
4 7 1.0 5000.0 7.905138e-03 7.739137e-02
21 -1 0 0 103 101  0.000000e+00  0.000000e+00  2.340641e+03  2.340641e+03 0.0 0.0 9.0
 2 -1 0 0 101   0  0.000000e+00  0.000000e+00 -2.770999e+03  2.770999e+03 0.0 0.0 9.0
22  1 1 2   0   0 -2.060673e+02  5.619595e+02  2.269050e+03  2.346668e+03 0.0 0.0 9.0
 2  1 1 2 103   0  2.060673e+02 -5.619595e+02 -2.699408e+03  2.764972e+03 0.0022 0.0 9.0
#pdf 21 2 3.600986e-01 4.263075e-01 5000.0 1.722769e-02 7.498891e-03
</event>
<event>
4 7 1.0 5000.0 7.905138e-03 7.739137e-02
 2 -1 0 0 101   0  0.000000e+00  0.000000e+00  2.868233e+03  2.868233e+03 0.0 0.0 9.0
21 -1 0 0 103 101  0.000000e+00  0.000000e+00 -2.201665e+03  2.201665e+03 0.0 0.0 9.0
22  1 1 2   0   0  2.156243e+03  1.064497e+03  1.069296e+03  2.631717e+03 0.0 0.0 9.0
 2  1 1 2 103   0 -2.156243e+03 -1.064497e+03 -4.027281e+02  2.438181e+03 0.0022 0.0 9.0
#pdf 2 21 4.412666e-01 3.387177e-01 5000.0 1.086821e-01 2.039507e-01
</event>
<event>
4 7 1.0 5000.0 7.905138e-03 7.739137e-02
 2 -1 0 0 101   0  0.000000e+00  0.000000e+00  3.522084e+03  3.522084e+03 0.0 0.0 9.0
21 -1 0 0 103 101  0.000000e+00  0.000000e+00 -1.757627e+03  1.757627e+03 0.0 0.0 9.0
 2  1 1 2 103   0 -4.816808e+02  1.038732e+03  3.225949e+03  3.423117e+03 0.0022 0.0 9.0
22  1 1 2   0   0  4.816808e+02 -1.038732e+03 -1.461492e+03  1.856594e+03 0.0 0.0 9.0
#pdf 2 21 5.418591e-01 2.704041e-01 5000.0 4.979370e-02 2.866611e-01
</event>
<event>
4 7 1.0 5000.0 7.905138e-03 7.739137e-02
 2 -1 0 0 101   0  0.000000e+00  0.000000e+00  1.845339e+03  1.845339e+03 0.0 0.0 9.0
21 -1 0 0 103 101  0.000000e+00  0.000000e+00 -3.435053e+03  3.435053e+03 0.0 0.0 9.0
 2  1 1 2 103   0 -1.144070e+03  6.332838e+02  1.461303e+03  1.960957e+03 0.0022 0.0 9.0
22  1 1 2   0   0  1.144070e+03 -6.332838e+02 -3.051017e+03  3.319435e+03 0.0 0.0 9.0
#pdf 2 21 2.838983e-01 5.284696e-01 5000.0 2.693096e-01 5.585993e-02
</event>
<event>
4 7 1.0 5000.0 7.905138e-03 7.739137e-02
 2 -1 0 0 101   0  0.000000e+00  0.000000e+00  2.398466e+03  2.398466e+03 0.0 0.0 9.0
21 -1 0 0 103 101  0.000000e+00  0.000000e+00 -2.625446e+03  2.625446e+03 0.0 0.0 9.0
22  1 1 2   0   0  1.192169e+03  1.333146e+03  1.648564e+03  2.432346e+03 0.0 0.0 9.0
 2  1 1 2 103   0 -1.192169e+03 -1.333146e+03 -1.875544e+03  2.591565e+03 0.0022 0.0 9.0
#pdf 2 21 3.689947e-01 4.039147e-01 5000.0 1.719749e-01 1.390989e-01
</event>
<event>
4 7 1.0 5000.0 7.905138e-03 7.739137e-02
 2 -1 0 0 101   0  0.000000e+00  0.000000e+00  2.403665e+03  2.403665e+03 0.0 0.0 9.0
21 -1 0 0 103 101  0.000000e+00  0.000000e+00 -2.685384e+03  2.685384e+03 0.0 0.0 9.0
 2  1 1 2 103   0  1.901715e+03 -3.016784e+01 -1.827886e+03  2.637915e+03 0.0022 0.0 9.0
22  1 1 2   0   0 -1.901715e+03  3.016784e+01  1.546167e+03  2.451135e+03 0.0 0.0 9.0
#pdf 2 21 3.697947e-01 4.131361e-01 5000.0 1.711722e-01 1.311298e-01
</event>
<event>
4 7 1.0 5000.0 7.905138e-03 7.739137e-02
21 -1 0 0 103 101  0.000000e+00  0.000000e+00  2.249224e+03  2.249224e+03 0.0 0.0 9.0
 2 -1 0 0 101   0  0.000000e+00  0.000000e+00 -2.784617e+03  2.784617e+03 0.0 0.0 9.0
 2  1 1 2 103   0  3.423598e+02  1.093478e+03 -2.505321e+03  2.754912e+03 0.0022 0.0 9.0
22  1 1 2   0   0 -3.423598e+02 -1.093478e+03  1.969928e+03  2.278930e+03 0.0 0.0 9.0
#pdf 21 2 3.460345e-01 4.284027e-01 5000.0 2.049335e-02 7.299049e-03
</event>
<event>
4 7 1.0 5000.0 7.905138e-03 7.739137e-02
21 -1 0 0 103 101  0.000000e+00  0.000000e+00  2.240417e+03  2.240417e+03 0.0 0.0 9.0
 2 -1 0 0 101   0  0.000000e+00  0.000000e+00 -2.780687e+03  2.780687e+03 0.0 0.0 9.0
 2  1 1 2 103   0  2.427919e+03 -3.520951e+02 -7.323123e+02  2.560282e+03 0.0022 0.0 9.0
22  1 1 2   0   0 -2.427919e+03  3.520951e+02  1.920418e+02  2.460822e+03 0.0 0.0 9.0
#pdf 21 2 3.446795e-01 4.277980e-01 5000.0 2.083582e-02 7.356055e-03
</event>
<event>
4 7 1.0 5000.0 7.905138e-03 7.739137e-02
 2 -1 0 0 101   0  0.000000e+00  0.000000e+00  5.393445e+03  5.393445e+03 0.0 0.0 9.0
21 -1 0 0 103 101  0.000000e+00  0.000000e+00 -1.122037e+03  1.122037e+03 0.0 0.0 9.0
 2  1 1 2 103   0  1.734650e+03 -6.178437e+02 -2.449827e+01  1.841560e+03 0.0022 0.0 9.0
22  1 1 2   0   0 -1.734650e+03  6.178437e+02  4.295906e+03  4.673923e+03 0.0 0.0 9.0
#pdf 2 21 8.297608e-01 1.726211e-01 5000.0 8.807445e-04 4.195832e-01
</event>
<event>
4 7 1.0 5000.0 7.905138e-03 7.739137e-02
21 -1 0 0 103 101  0.000000e+00  0.000000e+00  2.208443e+03  2.208443e+03 0.0 0.0 9.0
 2 -1 0 0 101   0  0.000000e+00  0.000000e+00 -2.877907e+03  2.877907e+03 0.0 0.0 9.0
 2  1 1 2 103   0  1.159187e+03  8.476186e+02 -2.424997e+03  2.818295e+03 0.0022 0.0 9.0
22  1 1 2   0   0 -1.159187e+03 -8.476186e+02  1.755534e+03  2.268054e+03 0.0 0.0 9.0
#pdf 21 2 3.397604e-01 4.427549e-01 5000.0 2.212774e-02 6.067308e-03
</event>
<event>
4 7 1.0 5000.0 7.905138e-03 7.739137e-02
 2 -1 0 0 101   0  0.000000e+00  0.000000e+00  2.507434e+03  2.507434e+03 0.0 0.0 9.0
21 -1 0 0 103 101  0.000000e+00  0.000000e+00 -2.419719e+03  2.419719e+03 0.0 0.0 9.0
 2  1 1 2 103   0  3.976488e+01 -6.635112e+02  2.416038e+03  2.505807e+03 0.0022 0.0 9.0
22  1 1 2   0   0 -3.976488e+01  6.635112e+02 -2.328323e+03  2.421346e+03 0.0 0.0 9.0
#pdf 2 21 3.857591e-01 3.722644e-01 5000.0 1.556670e-01 1.687138e-01
</event>
<event>
4 7 1.0 5000.0 7.905138e-03 7.739137e-02
21 -1 0 0 103 101  0.000000e+00  0.000000e+00  2.629574e+03  2.629574e+03 0.0 0.0 9.0
 2 -1 0 0 101   0  0.000000e+00  0.000000e+00 -2.313435e+03  2.313435e+03 0.0 0.0 9.0
 2  1 1 2 103   0  1.313082e+03  1.586898e+03 -1.201519e+03  2.384550e+03 0.0022 0.0 9.0
22  1 1 2   0   0 -1.313082e+03 -1.586898e+03  1.517658e+03  2.558459e+03 0.0 0.0 9.0
#pdf 21 2 4.045498e-01 3.559131e-01 5000.0 9.895642e-03 1.813745e-02
</event>
<event>
4 7 1.0 5000.0 7.905138e-03 7.739137e-02
 2 -1 0 0 101   0  0.000000e+00  0.000000e+00  4.057951e+03  4.057951e+03 0.0 0.0 9.0
21 -1 0 0 103 101  0.000000e+00  0.000000e+00 -1.321543e+03  1.321543e+03 0.0 0.0 9.0
22  1 1 2   0   0 -9.169489e+02  2.337866e+02  3.823140e+03  3.938509e+03 0.0 0.0 9.0
 2  1 1 2 103   0  9.169489e+02 -2.337866e+02 -1.086732e+03  1.440985e+03 0.0022 0.0 9.0
#pdf 2 21 6.243001e-01 2.033143e-01 5000.0 2.239555e-02 3.774662e-01
</event>
<event>
4 7 1.0 5000.0 7.905138e-03 7.739137e-02
21 -1 0 0 103 101  0.000000e+00  0.000000e+00  1.364355e+03  1.364355e+03 0.0 0.0 9.0
 2 -1 0 0 101   0  0.000000e+00  0.000000e+00 -4.758020e+03  4.758020e+03 0.0 0.0 9.0
22  1 1 2   0   0 -3.548645e+02  2.336796e+03 -2.839863e+03  3.694775e+03 0.0 0.0 9.0
 2  1 1 2 103   0  3.548645e+02 -2.336796e+03 -5.538027e+02  2.427600e+03 0.0022 0.0 9.0
#pdf 21 2 2.099007e-01 7.320031e-01 5000.0 1.106567e-01 5.534961e-05
</event>
<event>
4 7 1.0 5000.0 7.905138e-03 7.739137e-02
21 -1 0 0 103 101  0.000000e+00  0.000000e+00  3.557654e+03  3.557654e+03 0.0 0.0 9.0
 2 -1 0 0 101   0  0.000000e+00  0.000000e+00 -1.752047e+03  1.752047e+03 0.0 0.0 9.0
22  1 1 2   0   0  1.631979e+02 -1.941128e+03  2.563357e+03  3.219535e+03 0.0 0.0 9.0
 2  1 1 2 103   0 -1.631979e+02  1.941128e+03 -7.577498e+02  2.090166e+03 0.0022 0.0 9.0
#pdf 21 2 5.473314e-01 2.695458e-01 5000.0 1.437931e-03 5.233720e-02
</event>
<event>
4 7 1.0 5000.0 7.905138e-03 7.739137e-02
21 -1 0 0 103 101  0.000000e+00  0.000000e+00  1.396049e+03  1.396049e+03 0.0 0.0 9.0
 2 -1 0 0 101   0  0.000000e+00  0.000000e+00 -4.377735e+03  4.377735e+03 0.0 0.0 9.0
 2  1 1 2 103   0  1.628011e+03  4.611264e+02  6.138810e+02  1.799974e+03 0.0022 0.0 9.0
22  1 1 2   0   0 -1.628011e+03 -4.611264e+02 -3.595567e+03  3.973809e+03 0.0 0.0 9.0
#pdf 21 2 2.147767e-01 6.734977e-01 5000.0 1.040015e-01 1.806952e-04
</event>
<event>
4 7 1.0 5000.0 7.905138e-03 7.739137e-02
 2 -1 0 0 101   0  0.000000e+00  0.000000e+00  2.061496e+03  2.061496e+03 0.0 0.0 9.0
21 -1 0 0 103 101  0.000000e+00  0.000000e+00 -2.929968e+03  2.929968e+03 0.0 0.0 9.0
 2  1 1 2 103   0  1.221253e+03 -1.765546e+03 -1.649223e+03  2.707129e+03 0.0022 0.0 9.0
22  1 1 2   0   0 -1.221253e+03  1.765546e+03  7.807513e+02  2.284334e+03 0.0 0.0 9.0
#pdf 2 21 3.171532e-01 4.507643e-01 5000.0 2.285814e-01 1.017144e-01
</event>
<event>
4 7 1.0 5000.0 7.905138e-03 7.739137e-02
21 -1 0 0 103 101  0.000000e+00  0.000000e+00  2.258351e+03  2.258351e+03 0.0 0.0 9.0
 2 -1 0 0 101   0  0.000000e+00  0.000000e+00 -2.931562e+03  2.931562e+03 0.0 0.0 9.0
 2  1 1 2 103   0 -8.874425e+02 -6.222858e+02  2.016881e+03  2.289673e+03 0.0022 0.0 9.0
22  1 1 2   0   0  8.874425e+02  6.222858e+02 -2.690093e+03  2.900240e+03 0.0 0.0 9.0
#pdf 21 2 3.474385e-01 4.510096e-01 5000.0 2.014396e-02 5.445797e-03
</event>
<event>
4 7 1.0 5000.0 7.905138e-03 7.739137e-02
 2 -1 0 0 101   0  0.000000e+00  0.000000e+00  2.118760e+03  2.118760e+03 0.0 0.0 9.0
21 -1 0 0 103 101  0.000000e+00  0.000000e+00 -3.111525e+03  3.111525e+03 0.0 0.0 9.0
22  1 1 2   0   0  2.319867e+02 -2.385400e+03  4.418843e+02  2.437050e+03 0.0 0.0 9.0
 2  1 1 2 103   0 -2.319867e+02  2.385400e+03 -1.434649e+03  2.793236e+03 0.0022 0.0 9.0
#pdf 2 21 3.259631e-01 4.786962e-01 5000.0 2.183391e-01 8.300751e-02
</event>
<event>
4 7 1.0 5000.0 7.905138e-03 7.739137e-02
 2 -1 0 0 101   0  0.000000e+00  0.000000e+00  1.805974e+03  1.805974e+03 0.0 0.0 9.0
21 -1 0 0 103 101  0.000000e+00  0.000000e+00 -3.792987e+03  3.792987e+03 0.0 0.0 9.0
22  1 1 2   0   0  1.235250e+03  2.993782e+02 -3.440718e+03  3.667971e+03 0.0 0.0 9.0
 2  1 1 2 103   0 -1.235250e+03 -2.993782e+02  1.453704e+03  1.930990e+03 0.0022 0.0 9.0
#pdf 2 21 2.778421e-01 5.835365e-01 5000.0 2.770377e-01 3.395946e-02
</event>
<event>
4 7 1.0 5000.0 7.905138e-03 7.739137e-02
21 -1 0 0 103 101  0.000000e+00  0.000000e+00  2.083149e+03  2.083149e+03 0.0 0.0 9.0
 2 -1 0 0 101   0  0.000000e+00  0.000000e+00 -3.022233e+03  3.022233e+03 0.0 0.0 9.0
22  1 1 2   0   0  1.545604e+03 -1.929879e+03 -3.500173e+01  2.472762e+03 0.0 0.0 9.0
 2  1 1 2 103   0 -1.545604e+03  1.929879e+03 -9.040824e+02  2.632620e+03 0.0022 0.0 9.0
#pdf 21 2 3.204844e-01 4.649589e-01 5000.0 2.802608e-02 4.527947e-03
</event>
<event>
4 7 1.0 5000.0 7.905138e-03 7.739137e-02
21 -1 0 0 103 101  0.000000e+00  0.000000e+00  1.564248e+03  1.564248e+03 0.0 0.0 9.0
 2 -1 0 0 101   0  0.000000e+00  0.000000e+00 -4.002809e+03  4.002809e+03 0.0 0.0 9.0
22  1 1 2   0   0 -1.520705e+03 -7.876714e+01 -3.428068e+03  3.751053e+03 0.0 0.0 9.0
 2  1 1 2 103   0  1.520705e+03  7.876714e+01  9.895071e+02  1.816005e+03 0.0022 0.0 9.0
#pdf 21 2 2.406536e-01 6.158168e-01 5000.0 7.499952e-02 4.965198e-04
</event>
<event>
4 7 1.0 5000.0 7.905138e-03 7.739137e-02
21 -1 0 0 103 101  0.000000e+00  0.000000e+00  1.760577e+03  1.760577e+03 0.0 0.0 9.0
 2 -1 0 0 101   0  0.000000e+00  0.000000e+00 -3.788202e+03  3.788202e+03 0.0 0.0 9.0
 2  1 1 2 103   0  1.633071e+03  6.904561e+01  1.134168e+03  1.989478e+03 0.0022 0.0 9.0
22  1 1 2   0   0 -1.633071e+03 -6.904561e+01 -3.161792e+03  3.559300e+03 0.0 0.0 9.0
#pdf 21 2 2.708580e-01 5.828002e-01 5000.0 5.149915e-02 8.416006e-04
</event>
<event>
4 7 1.0 5000.0 7.905138e-03 7.739137e-02
 2 -1 0 0 101   0  0.000000e+00  0.000000e+00  3.743464e+03  3.743464e+03 0.0 0.0 9.0
21 -1 0 0 103 101  0.000000e+00  0.000000e+00 -1.681713e+03  1.681713e+03 0.0 0.0 9.0
22  1 1 2   0   0 -1.823077e+02  8.653554e+02 -1.507636e+03  1.747868e+03 0.0 0.0 9.0
 2  1 1 2 103   0  1.823077e+02 -8.653554e+02  3.569387e+03  3.677309e+03 0.0022 0.0 9.0
#pdf 2 21 5.759175e-01 2.587251e-01 5000.0 3.653045e-02 3.019855e-01
</event>
<event>
4 7 1.0 5000.0 7.905138e-03 7.739137e-02
21 -1 0 0 103 101  0.000000e+00  0.000000e+00  3.828218e+03  3.828218e+03 0.0 0.0 9.0
 2 -1 0 0 101   0  0.000000e+00  0.000000e+00 -1.646859e+03  1.646859e+03 0.0 0.0 9.0
22  1 1 2   0   0  9.757374e+02 -1.592175e+02 -1.425722e+03  1.734963e+03 0.0 0.0 9.0
 2  1 1 2 103   0 -9.757374e+02  1.592175e+02  3.607082e+03  3.740114e+03 0.0022 0.0 9.0
#pdf 21 2 5.889567e-01 2.533629e-01 5000.0 7.645594e-04 6.401315e-02
</event>
<event>
4 7 1.0 5000.0 7.905138e-03 7.739137e-02
 2 -1 0 0 101   0  0.000000e+00  0.000000e+00  1.672499e+03  1.672499e+03 0.0 0.0 9.0
21 -1 0 0 103 101  0.000000e+00  0.000000e+00 -3.781847e+03  3.781847e+03 0.0 0.0 9.0
22  1 1 2   0   0 -1.576001e+03 -1.951706e+03 -8.600958e+02  2.651924e+03 0.0 0.0 9.0
 2  1 1 2 103   0  1.576001e+03  1.951706e+03 -1.249253e+03  2.802422e+03 0.0022 0.0 9.0
#pdf 2 21 2.573075e-01 5.818227e-01 5000.0 3.038594e-01 3.452579e-02
</event>
<event>
4 7 1.0 5000.0 7.905138e-03 7.739137e-02
21 -1 0 0 103 101  0.000000e+00  0.000000e+00  2.001087e+03  2.001087e+03 0.0 0.0 9.0
 2 -1 0 0 101   0  0.000000e+00  0.000000e+00 -2.380130e+03  2.380130e+03 0.0 0.0 9.0
22  1 1 2   0   0 -1.825447e+03 -1.107730e+03  2.633125e+02  2.151431e+03 0.0 0.0 9.0
 2  1 1 2 103   0  1.825447e+03  1.107730e+03 -6.423555e+02  2.229785e+03 0.0022 0.0 9.0
#pdf 21 2 3.078595e-01 3.661738e-01 5000.0 3.274814e-02 1.598535e-02
</event>
<event>
4 7 1.0 5000.0 7.905138e-03 7.739137e-02
 2 -1 0 0 101   0  0.000000e+00  0.000000e+00  1.457906e+03  1.457906e+03 0.0 0.0 9.0
21 -1 0 0 103 101  0.000000e+00  0.000000e+00 -3.859026e+03  3.859026e+03 0.0 0.0 9.0
 2  1 1 2 103   0 -7.984775e+02 -2.030271e+03 -1.572352e+02  2.187302e+03 0.0022 0.0 9.0
22  1 1 2   0   0  7.984775e+02  2.030271e+03 -2.243884e+03  3.129630e+03 0.0 0.0 9.0
#pdf 2 21 2.242933e-01 5.936963e-01 5000.0 3.485360e-01 3.074106e-02
</event>
<event>
4 7 1.0 5000.0 7.905138e-03 7.739137e-02
 2 -1 0 0 101   0  0.000000e+00  0.000000e+00  4.173218e+03  4.173218e+03 0.0 0.0 9.0
21 -1 0 0 103 101  0.000000e+00  0.000000e+00 -1.523558e+03  1.523558e+03 0.0 0.0 9.0
22  1 1 2   0   0 -1.823724e+03  7.699143e+02  3.089144e+03  3.668998e+03 0.0 0.0 9.0
 2  1 1 2 103   0  1.823724e+03 -7.699143e+02 -4.394840e+02  2.027778e+03 0.0022 0.0 9.0
#pdf 2 21 6.420335e-01 2.343936e-01 5000.0 1.840103e-02 3.347072e-01
</event>
<event>
4 7 1.0 5000.0 7.905138e-03 7.739137e-02
 2 -1 0 0 101   0  0.000000e+00  0.000000e+00  1.392105e+03  1.392105e+03 0.0 0.0 9.0
21 -1 0 0 103 101  0.000000e+00  0.000000e+00 -4.521048e+03  4.521048e+03 0.0 0.0 9.0
22  1 1 2   0   0  3.783174e+01 -8.666552e+02  1.209726e+03  1.488610e+03 0.0 0.0 9.0
 2  1 1 2 103   0 -3.783174e+01  8.666552e+02 -4.338669e+03  4.424542e+03 0.0022 0.0 9.0
#pdf 2 21 2.141699e-01 6.955458e-01 5000.0 3.624288e-01 9.508572e-03
</event>
<event>
4 7 1.0 5000.0 7.905138e-03 7.739137e-02
21 -1 0 0 103 101  0.000000e+00  0.000000e+00  3.087315e+03  3.087315e+03 0.0 0.0 9.0
 2 -1 0 0 101   0  0.000000e+00  0.000000e+00 -2.138896e+03  2.138896e+03 0.0 0.0 9.0
22  1 1 2   0   0 -2.471772e+03 -1.906193e+02 -2.135639e+02  2.488293e+03 0.0 0.0 9.0
 2  1 1 2 103   0  2.471772e+03  1.906193e+02  1.161983e+03  2.737918e+03 0.0022 0.0 9.0
#pdf 21 2 4.749716e-01 3.290609e-01 5000.0 3.962244e-03 2.523467e-02
</event>
<event>
4 7 1.0 5000.0 7.905138e-03 7.739137e-02
21 -1 0 0 103 101  0.000000e+00  0.000000e+00  3.815648e+03  3.815648e+03 0.0 0.0 9.0
 2 -1 0 0 101   0  0.000000e+00  0.000000e+00 -1.749946e+03  1.749946e+03 0.0 0.0 9.0
22  1 1 2   0   0  2.248358e+02 -1.921021e+03 -8.125278e+02  2.097874e+03 0.0 0.0 9.0
 2  1 1 2 103   0 -2.248358e+02  1.921021e+03  2.878230e+03  3.467720e+03 0.0022 0.0 9.0
#pdf 21 2 5.870228e-01 2.692224e-01 5000.0 7.881174e-04 5.254588e-02
</event>
<event>
4 7 1.0 5000.0 7.905138e-03 7.739137e-02
 2 -1 0 0 101   0  0.000000e+00  0.000000e+00  3.925494e+03  3.925494e+03 0.0 0.0 9.0
21 -1 0 0 103 101  0.000000e+00  0.000000e+00 -1.523746e+03  1.523746e+03 0.0 0.0 9.0
 2  1 1 2 103   0  1.506993e+03 -9.661710e+02  3.057335e+03  3.542853e+03 0.0022 0.0 9.0
22  1 1 2   0   0 -1.506993e+03  9.661710e+02 -6.555866e+02  1.906386e+03 0.0 0.0 9.0
#pdf 2 21 6.039221e-01 2.344224e-01 5000.0 2.773794e-02 3.346678e-01
</event>
<event>
4 7 1.0 5000.0 7.905138e-03 7.739137e-02
21 -1 0 0 103 101  0.000000e+00  0.000000e+00  2.273336e+03  2.273336e+03 0.0 0.0 9.0
 2 -1 0 0 101   0  0.000000e+00  0.000000e+00 -3.558294e+03  3.558294e+03 0.0 0.0 9.0
22  1 1 2   0   0  1.911123e+03 -4.827550e+02 -2.744446e+03  3.378968e+03 0.0 0.0 9.0
 2  1 1 2 103   0 -1.911123e+03  4.827550e+02  1.459488e+03  2.452662e+03 0.0022 0.0 9.0
#pdf 21 2 3.497440e-01 5.474299e-01 5000.0 1.958141e-02 1.435829e-03
</event>
<event>
4 7 1.0 5000.0 7.905138e-03 7.739137e-02
 2 -1 0 0 101   0  0.000000e+00  0.000000e+00  2.760001e+03  2.760001e+03 0.0 0.0 9.0
21 -1 0 0 103 101  0.000000e+00  0.000000e+00 -2.276278e+03  2.276278e+03 0.0 0.0 9.0
22  1 1 2   0   0  5.338270e+02 -7.756936e+02  2.575550e+03  2.742285e+03 0.0 0.0 9.0
 2  1 1 2 103   0 -5.338270e+02  7.756936e+02 -2.091826e+03  2.293994e+03 0.0022 0.0 9.0
#pdf 2 21 4.246156e-01 3.501966e-01 5000.0 1.216243e-01 1.914582e-01
</event>
<event>
4 7 1.0 5000.0 7.905138e-03 7.739137e-02
21 -1 0 0 103 101  0.000000e+00  0.000000e+00  2.165965e+03  2.165965e+03 0.0 0.0 9.0
 2 -1 0 0 101   0  0.000000e+00  0.000000e+00 -2.929617e+03  2.929617e+03 0.0 0.0 9.0
22  1 1 2   0   0  7.427959e+02  1.904859e+03 -1.870100e+03  2.770832e+03 0.0 0.0 9.0
 2  1 1 2 103   0 -7.427959e+02 -1.904859e+03  1.106448e+03  2.324750e+03 0.0022 0.0 9.0
#pdf 21 2 3.332254e-01 4.507103e-01 5000.0 2.397899e-02 5.466946e-03
</event>
<event>
4 7 1.0 5000.0 7.905138e-03 7.739137e-02
 2 -1 0 0 101   0  0.000000e+00  0.000000e+00  2.014715e+03  2.014715e+03 0.0 0.0 9.0
21 -1 0 0 103 101  0.000000e+00  0.000000e+00 -3.119765e+03  3.119765e+03 0.0 0.0 9.0
 2  1 1 2 103   0  2.244813e+02  8.866160e+02 -2.942842e+03  3.081688e+03 0.0022 0.0 9.0
22  1 1 2   0   0 -2.244813e+02 -8.866160e+02  1.837791e+03  2.052792e+03 0.0 0.0 9.0
#pdf 2 21 3.099561e-01 4.799639e-01 5000.0 2.371167e-01 8.221969e-02
</event>
<event>
4 7 1.0 5000.0 7.905138e-03 7.739137e-02
21 -1 0 0 103 101  0.000000e+00  0.000000e+00  4.872178e+03  4.872178e+03 0.0 0.0 9.0
 2 -1 0 0 101   0  0.000000e+00  0.000000e+00 -1.259232e+03  1.259232e+03 0.0 0.0 9.0
22  1 1 2   0   0  1.993558e+03  1.237950e+03  2.787624e+03  3.643850e+03 0.0 0.0 9.0
 2  1 1 2 103   0 -1.993558e+03 -1.237950e+03  8.253229e+02  2.487560e+03 0.0022 0.0 9.0
#pdf 21 2 7.495659e-01 1.937279e-01 5000.0 3.718292e-05 1.365178e-01
</event>
<event>
4 7 1.0 5000.0 7.905138e-03 7.739137e-02
 2 -1 0 0 101   0  0.000000e+00  0.000000e+00  3.007235e+03  3.007235e+03 0.0 0.0 9.0
21 -1 0 0 103 101  0.000000e+00  0.000000e+00 -2.106982e+03  2.106982e+03 0.0 0.0 9.0
 2  1 1 2 103   0 -7.595130e+02  1.869798e+03  1.978379e+03  2.826126e+03 0.0022 0.0 9.0
22  1 1 2   0   0  7.595130e+02 -1.869798e+03 -1.078126e+03  2.288091e+03 0.0 0.0 9.0
#pdf 2 21 4.626515e-01 3.241510e-01 5000.0 9.342903e-02 2.204276e-01
</event>
<event>
4 7 1.0 5000.0 7.905138e-03 7.739137e-02
 2 -1 0 0 101   0  0.000000e+00  0.000000e+00  1.215342e+03  1.215342e+03 0.0 0.0 9.0
21 -1 0 0 103 101  0.000000e+00  0.000000e+00 -5.222740e+03  5.222740e+03 0.0 0.0 9.0
 2  1 1 2 103   0 -2.297524e+03 -6.242232e+02 -9.507461e+02  2.563628e+03 0.0022 0.0 9.0
22  1 1 2   0   0  2.297524e+03  6.242232e+02 -3.056652e+03  3.874454e+03 0.0 0.0 9.0
#pdf 2 21 1.869757e-01 8.034985e-01 5000.0 3.999245e-01 1.584336e-03
</event>
<event>
4 7 1.0 5000.0 7.905138e-03 7.739137e-02
21 -1 0 0 103 101  0.000000e+00  0.000000e+00  1.784846e+03  1.784846e+03 0.0 0.0 9.0
 2 -1 0 0 101   0  0.000000e+00  0.000000e+00 -3.488669e+03  3.488669e+03 0.0 0.0 9.0
22  1 1 2   0   0  8.874796e+02 -1.065748e+03  1.340089e+03  1.928543e+03 0.0 0.0 9.0
 2  1 1 2 103   0 -8.874796e+02  1.065748e+03 -3.043912e+03  3.344972e+03 0.0022 0.0 9.0
#pdf 21 2 2.745917e-01 5.367183e-01 5000.0 4.918986e-02 1.678049e-03
</event>
<event>
4 7 1.0 5000.0 7.905138e-03 7.739137e-02
 2 -1 0 0 101   0  0.000000e+00  0.000000e+00  1.614519e+03  1.614519e+03 0.0 0.0 9.0
21 -1 0 0 103 101  0.000000e+00  0.000000e+00 -3.470906e+03  3.470906e+03 0.0 0.0 9.0
22  1 1 2   0   0 -1.907916e+03  6.023083e+02  4.308694e+02  2.046599e+03 0.0 0.0 9.0
 2  1 1 2 103   0  1.907916e+03 -6.023083e+02 -2.287256e+03  3.038826e+03 0.0022 0.0 9.0
#pdf 2 21 2.483875e-01 5.339855e-01 5000.0 3.157736e-01 5.330035e-02
</event>
<event>
4 7 1.0 5000.0 7.905138e-03 7.739137e-02
 2 -1 0 0 101   0  0.000000e+00  0.000000e+00  2.400657e+03  2.400657e+03 0.0 0.0 9.0
21 -1 0 0 103 101  0.000000e+00  0.000000e+00 -2.581144e+03  2.581144e+03 0.0 0.0 9.0
22  1 1 2   0   0 -2.134695e+03  1.233413e+03 -4.342870e+02  2.503365e+03 0.0 0.0 9.0
 2  1 1 2 103   0  2.134695e+03 -1.233413e+03  2.537996e+02  2.478436e+03 0.0022 0.0 9.0
#pdf 2 21 3.693318e-01 3.970991e-01 5000.0 1.716363e-01 1.451880e-01
</event>
<event>
4 7 1.0 5000.0 7.905138e-03 7.739137e-02
 2 -1 0 0 101   0  0.000000e+00  0.000000e+00  2.695539e+03  2.695539e+03 0.0 0.0 9.0
21 -1 0 0 103 101  0.000000e+00  0.000000e+00 -2.038004e+03  2.038004e+03 0.0 0.0 9.0
22  1 1 2   0   0 -1.927761e+03 -1.229699e+03 -1.911483e+02  2.294550e+03 0.0 0.0 9.0
 2  1 1 2 103   0  1.927761e+03  1.229699e+03  8.486832e+02  2.438993e+03 0.0022 0.0 9.0
#pdf 2 21 4.146983e-01 3.135391e-01 5000.0 1.298090e-01 2.328472e-01
</event>
<event>
4 7 1.0 5000.0 7.905138e-03 7.739137e-02
21 -1 0 0 103 101  0.000000e+00  0.000000e+00  2.114148e+03  2.114148e+03 0.0 0.0 9.0
 2 -1 0 0 101   0  0.000000e+00  0.000000e+00 -3.003644e+03  3.003644e+03 0.0 0.0 9.0
22  1 1 2   0   0 -2.088272e+03 -4.267096e+02  9.203448e+02  2.321636e+03 0.0 0.0 9.0
 2  1 1 2 103   0  2.088272e+03  4.267096e+02 -1.809841e+03  2.796155e+03 0.0022 0.0 9.0
#pdf 21 2 3.252535e-01 4.620991e-01 5000.0 2.643758e-02 4.702411e-03
</event>
<event>
4 7 1.0 5000.0 7.905138e-03 7.739137e-02
 2 -1 0 0 101   0  0.000000e+00  0.000000e+00  2.221907e+03  2.221907e+03 0.0 0.0 9.0
21 -1 0 0 103 101  0.000000e+00  0.000000e+00 -2.495317e+03  2.495317e+03 0.0 0.0 9.0
 2  1 1 2 103   0  9.100797e+02  1.464358e+03  1.469670e+03  2.265506e+03 0.0022 0.0 9.0
22  1 1 2   0   0 -9.100797e+02 -1.464358e+03 -1.743081e+03  2.451718e+03 0.0 0.0 9.0
#pdf 2 21 3.418318e-01 3.838950e-01 5000.0 2.005193e-01 1.574330e-01
</event>
<event>
4 7 1.0 5000.0 7.905138e-03 7.739137e-02
21 -1 0 0 103 101  0.000000e+00  0.000000e+00  2.887923e+03  2.887923e+03 0.0 0.0 9.0
 2 -1 0 0 101   0  0.000000e+00  0.000000e+00 -2.306704e+03  2.306704e+03 0.0 0.0 9.0
22  1 1 2   0   0  3.539483e+02 -2.518028e+03  7.359387e+02  2.647140e+03 0.0 0.0 9.0
 2  1 1 2 103   0 -3.539483e+02  2.518028e+03 -1.547199e+02  2.547486e+03 0.0022 0.0 9.0
#pdf 21 2 4.442958e-01 3.548775e-01 5000.0 5.943920e-03 1.837238e-02
</event>
<event>
4 7 1.0 5000.0 7.905138e-03 7.739137e-02
 2 -1 0 0 101   0  0.000000e+00  0.000000e+00  2.689956e+03  2.689956e+03 0.0 0.0 9.0
21 -1 0 0 103 101  0.000000e+00  0.000000e+00 -1.683081e+03  1.683081e+03 0.0 0.0 9.0
 2  1 1 2 103   0  1.459319e+02  1.529304e+03  2.016275e+03  2.534843e+03 0.0022 0.0 9.0
22  1 1 2   0   0 -1.459319e+02 -1.529304e+03 -1.009399e+03  1.838193e+03 0.0 0.0 9.0
#pdf 2 21 4.138394e-01 2.589355e-01 5000.0 1.305341e-01 3.017077e-01
</event>
<event>
4 7 1.0 5000.0 7.905138e-03 7.739137e-02
21 -1 0 0 103 101  0.000000e+00  0.000000e+00  2.630333e+03  2.630333e+03 0.0 0.0 9.0
 2 -1 0 0 101   0  0.000000e+00  0.000000e+00 -2.361951e+03  2.361951e+03 0.0 0.0 9.0
 2  1 1 2 103   0 -1.288229e+03  9.236871e+02 -1.792130e+03  2.392584e+03 0.0022 0.0 9.0
22  1 1 2   0   0  1.288229e+03 -9.236871e+02  2.060512e+03  2.599700e+03 0.0 0.0 9.0
#pdf 21 2 4.046667e-01 3.633771e-01 5000.0 9.881037e-03 1.654906e-02
</event>
<event>
4 7 1.0 5000.0 7.905138e-03 7.739137e-02
21 -1 0 0 103 101  0.000000e+00  0.000000e+00  3.347499e+03  3.347499e+03 0.0 0.0 9.0
 2 -1 0 0 101   0  0.000000e+00  0.000000e+00 -1.845475e+03  1.845475e+03 0.0 0.0 9.0
22  1 1 2   0   0  2.179089e+03  1.161624e+03  4.556710e+02  2.511062e+03 0.0 0.0 9.0
 2  1 1 2 103   0 -2.179089e+03 -1.161624e+03  1.046352e+03  2.681912e+03 0.0022 0.0 9.0
#pdf 21 2 5.149998e-01 2.839193e-01 5000.0 2.287801e-03 4.385855e-02
</event>
<event>
4 7 1.0 5000.0 7.905138e-03 7.739137e-02
21 -1 0 0 103 101  0.000000e+00  0.000000e+00  2.144949e+03  2.144949e+03 0.0 0.0 9.0
 2 -1 0 0 101   0  0.000000e+00  0.000000e+00 -2.953140e+03  2.953140e+03 0.0 0.0 9.0
22  1 1 2   0   0  8.028958e+02  3.673790e+01  2.011476e+03  2.166109e+03 0.0 0.0 9.0
 2  1 1 2 103   0 -8.028958e+02 -3.673790e+01 -2.819666e+03  2.931980e+03 0.0022 0.0 9.0
#pdf 21 2 3.299922e-01 4.543292e-01 5000.0 2.494864e-02 5.214196e-03
</event>
<event>
4 7 1.0 5000.0 7.905138e-03 7.739137e-02
 2 -1 0 0 101   0  0.000000e+00  0.000000e+00  1.656493e+03  1.656493e+03 0.0 0.0 9.0
21 -1 0 0 103 101  0.000000e+00  0.000000e+00 -3.676968e+03  3.676968e+03 0.0 0.0 9.0
22  1 1 2   0   0  1.537825e+03 -1.595628e+03  1.634938e+02  2.222086e+03 0.0 0.0 9.0
 2  1 1 2 103   0 -1.537825e+03  1.595628e+03 -2.183968e+03  3.111375e+03 0.0022 0.0 9.0
#pdf 2 21 2.548451e-01 5.656874e-01 5000.0 3.071246e-01 4.021334e-02
</event>
<event>
4 7 1.0 5000.0 7.905138e-03 7.739137e-02
21 -1 0 0 103 101  0.000000e+00  0.000000e+00  2.067587e+03  2.067587e+03 0.0 0.0 9.0
 2 -1 0 0 101   0  0.000000e+00  0.000000e+00 -3.013334e+03  3.013334e+03 0.0 0.0 9.0
22  1 1 2   0   0  7.152043e+01  1.085595e+03  1.813570e+03  2.114869e+03 0.0 0.0 9.0
 2  1 1 2 103   0 -7.152043e+01 -1.085595e+03 -2.759318e+03  2.966052e+03 0.0022 0.0 9.0
#pdf 21 2 3.180903e-01 4.635898e-01 5000.0 2.886085e-02 4.610620e-03
</event>
<event>
4 7 1.0 5000.0 7.905138e-03 7.739137e-02
 2 -1 0 0 101   0  0.000000e+00  0.000000e+00  1.704682e+03  1.704682e+03 0.0 0.0 9.0
21 -1 0 0 103 101  0.000000e+00  0.000000e+00 -3.523801e+03  3.523801e+03 0.0 0.0 9.0
 2  1 1 2 103   0 -1.771336e+02 -1.356638e+03 -3.078573e+03  3.368896e+03 0.0022 0.0 9.0
22  1 1 2   0   0  1.771336e+02  1.356638e+03  1.259454e+03  1.859588e+03 0.0 0.0 9.0
#pdf 2 21 2.622588e-01 5.421233e-01 5000.0 2.973291e-01 4.967951e-02
</event>
<event>
4 7 1.0 5000.0 7.905138e-03 7.739137e-02
21 -1 0 0 103 101  0.000000e+00  0.000000e+00  2.014134e+03  2.014134e+03 0.0 0.0 9.0
 2 -1 0 0 101   0  0.000000e+00  0.000000e+00 -3.140714e+03  3.140714e+03 0.0 0.0 9.0
 2  1 1 2 103   0 -7.560663e+02 -2.356855e+03 -1.056670e+02  2.477412e+03 0.0022 0.0 9.0
22  1 1 2   0   0  7.560663e+02  2.356855e+03 -1.020913e+03  2.677436e+03 0.0 0.0 9.0
#pdf 21 2 3.098668e-01 4.831868e-01 5000.0 3.194832e-02 3.545624e-03
</event>
<event>
4 7 1.0 5000.0 7.905138e-03 7.739137e-02
 2 -1 0 0 101   0  0.000000e+00  0.000000e+00  2.235739e+03  2.235739e+03 0.0 0.0 9.0
21 -1 0 0 103 101  0.000000e+00  0.000000e+00 -2.821316e+03  2.821316e+03 0.0 0.0 9.0
22  1 1 2   0   0 -5.226306e+01 -5.262915e+02 -2.764617e+03  2.814751e+03 0.0 0.0 9.0
 2  1 1 2 103   0  5.226306e+01  5.262915e+02  2.179040e+03  2.242304e+03 0.0022 0.0 9.0
#pdf 2 21 3.439598e-01 4.340486e-01 5000.0 1.981920e-01 1.141773e-01
</event>
<event>
4 7 1.0 5000.0 7.905138e-03 7.739137e-02
 2 -1 0 0 101   0  0.000000e+00  0.000000e+00  2.895685e+03  2.895685e+03 0.0 0.0 9.0
21 -1 0 0 103 101  0.000000e+00  0.000000e+00 -2.277724e+03  2.277724e+03 0.0 0.0 9.0
22  1 1 2   0   0 -1.738414e+03 -5.077981e+02 -1.525038e+03  2.367632e+03 0.0 0.0 9.0
 2  1 1 2 103   0  1.738414e+03  5.077981e+02  2.142999e+03  2.805777e+03 0.0022 0.0 9.0
#pdf 2 21 4.454900e-01 3.504191e-01 5000.0 1.055318e-01 1.912204e-01
</event>
<event>
4 7 1.0 5000.0 7.905138e-03 7.739137e-02
 2 -1 0 0 101   0  0.000000e+00  0.000000e+00  2.349832e+03  2.349832e+03 0.0 0.0 9.0
21 -1 0 0 103 101  0.000000e+00  0.000000e+00 -2.600971e+03  2.600971e+03 0.0 0.0 9.0
22  1 1 2   0   0  1.874023e+02  1.291982e+03 -2.227682e+03  2.582035e+03 0.0 0.0 9.0
 2  1 1 2 103   0 -1.874023e+02 -1.291982e+03  1.976544e+03  2.368768e+03 0.0022 0.0 9.0
#pdf 2 21 3.615126e-01 4.001494e-01 5000.0 1.795872e-01 1.424426e-01
</event>
<event>
4 7 1.0 5000.0 7.905138e-03 7.739137e-02
21 -1 0 0 103 101  0.000000e+00  0.000000e+00  1.889945e+03  1.889945e+03 0.0 0.0 9.0
 2 -1 0 0 101   0  0.000000e+00  0.000000e+00 -3.250826e+03  3.250826e+03 0.0 0.0 9.0
22  1 1 2   0   0  1.770277e+03  1.496239e+03 -1.591151e+03  2.811472e+03 0.0 0.0 9.0
 2  1 1 2 103   0 -1.770277e+03 -1.496239e+03  2.302705e+02  2.329299e+03 0.0022 0.0 9.0
#pdf 21 2 2.907608e-01 5.001271e-01 5000.0 4.036561e-02 2.813391e-03
</event>
<event>
4 7 1.0 5000.0 7.905138e-03 7.739137e-02
 2 -1 0 0 101   0  0.000000e+00  0.000000e+00  3.277822e+03  3.277822e+03 0.0 0.0 9.0
21 -1 0 0 103 101  0.000000e+00  0.000000e+00 -1.831965e+03  1.831965e+03 0.0 0.0 9.0
 2  1 1 2 103   0  1.988273e+03 -4.624904e+02 -6.904625e+02  2.154963e+03 0.0022 0.0 9.0
22  1 1 2   0   0 -1.988273e+03  4.624904e+02  2.136319e+03  2.954824e+03 0.0 0.0 9.0
#pdf 2 21 5.042803e-01 2.818408e-01 5000.0 6.810429e-02 2.719256e-01
</event>
<event>
4 7 1.0 5000.0 7.905138e-03 7.739137e-02
21 -1 0 0 103 101  0.000000e+00  0.000000e+00  2.006512e+03  2.006512e+03 0.0 0.0 9.0
 2 -1 0 0 101   0  0.000000e+00  0.000000e+00 -3.001211e+03  3.001211e+03 0.0 0.0 9.0
 2  1 1 2 103   0 -5.865381e+02  8.975705e+02  1.754858e+03  2.056499e+03 0.0022 0.0 9.0
22  1 1 2   0   0  5.865381e+02 -8.975705e+02 -2.749557e+03  2.951224e+03 0.0 0.0 9.0
#pdf 21 2 3.086941e-01 4.617248e-01 5000.0 3.241370e-02 4.725823e-03
</event>
<event>
4 7 1.0 5000.0 7.905138e-03 7.739137e-02
21 -1 0 0 103 101  0.000000e+00  0.000000e+00  2.066393e+03  2.066393e+03 0.0 0.0 9.0
 2 -1 0 0 101   0  0.000000e+00  0.000000e+00 -3.309107e+03  3.309107e+03 0.0 0.0 9.0
22  1 1 2   0   0  2.540195e+03  2.651467e+01  1.609174e+01  2.540384e+03 0.0 0.0 9.0
 2  1 1 2 103   0 -2.540195e+03 -2.651467e+01 -1.258806e+03  2.835116e+03 0.0022 0.0 9.0
#pdf 21 2 3.179066e-01 5.090934e-01 5000.0 2.892598e-02 2.484571e-03
</event>
<event>
4 7 1.0 5000.0 7.905138e-03 7.739137e-02
21 -1 0 0 103 101  0.000000e+00  0.000000e+00  2.520702e+03  2.520702e+03 0.0 0.0 9.0
 2 -1 0 0 101   0  0.000000e+00  0.000000e+00 -2.463019e+03  2.463019e+03 0.0 0.0 9.0
 2  1 1 2 103   0  2.337097e+02  2.162977e+03  1.243603e+03  2.505920e+03 0.0022 0.0 9.0
22  1 1 2   0   0 -2.337097e+02 -2.162977e+03 -1.185920e+03  2.477800e+03 0.0 0.0 9.0
#pdf 21 2 3.878003e-01 3.789259e-01 5000.0 1.221769e-02 1.365709e-02
</event>
<event>
4 7 1.0 5000.0 7.905138e-03 7.739137e-02
21 -1 0 0 103 101  0.000000e+00  0.000000e+00  1.788212e+03  1.788212e+03 0.0 0.0 9.0
 2 -1 0 0 101   0  0.000000e+00  0.000000e+00 -3.816006e+03  3.816006e+03 0.0 0.0 9.0
 2  1 1 2 103   0  7.451243e+02 -1.093130e+03  1.402301e+03  1.927847e+03 0.0022 0.0 9.0
22  1 1 2   0   0 -7.451243e+02  1.093130e+03 -3.430096e+03  3.676371e+03 0.0 0.0 9.0
#pdf 21 2 2.751095e-01 5.870779e-01 5000.0 4.887796e-02 7.874384e-04
</event>
<event>
4 7 1.0 5000.0 7.905138e-03 7.739137e-02
21 -1 0 0 103 101  0.000000e+00  0.000000e+00  5.935007e+03  5.935007e+03 0.0 0.0 9.0
 2 -1 0 0 101   0  0.000000e+00  0.000000e+00 -1.086417e+03  1.086417e+03 0.0 0.0 9.0
22  1 1 2   0   0  1.921243e+03 -1.495096e+03  1.425963e+03  2.821322e+03 0.0 0.0 9.0
 2  1 1 2 103   0 -1.921243e+03  1.495096e+03  3.422627e+03  4.200103e+03 0.0022 0.0 9.0
#pdf 21 2 9.130780e-01 1.671411e-01 5000.0 1.111051e-07 1.952117e-01
</event>
<event>
4 7 1.0 5000.0 7.905138e-03 7.739137e-02
 2 -1 0 0 101   0  0.000000e+00  0.000000e+00  1.810566e+03  1.810566e+03 0.0 0.0 9.0
21 -1 0 0 103 101  0.000000e+00  0.000000e+00 -3.463793e+03  3.463793e+03 0.0 0.0 9.0
22  1 1 2   0   0 -5.190501e+02 -1.401650e+03  1.289344e+03  1.973941e+03 0.0 0.0 9.0
 2  1 1 2 103   0  5.190501e+02  1.401650e+03 -2.942570e+03  3.300418e+03 0.0022 0.0 9.0
#pdf 2 21 2.785487e-01 5.328912e-01 5000.0 2.761310e-01 5.380233e-02
</event>
<event>
4 7 1.0 5000.0 7.905138e-03 7.739137e-02
 2 -1 0 0 101   0  0.000000e+00  0.000000e+00  2.032365e+03  2.032365e+03 0.0 0.0 9.0
21 -1 0 0 103 101  0.000000e+00  0.000000e+00 -3.037976e+03  3.037976e+03 0.0 0.0 9.0
22  1 1 2   0   0  1.809264e+03 -9.093762e+02  9.664771e+02  2.243764e+03 0.0 0.0 9.0
 2  1 1 2 103   0 -1.809264e+03  9.093762e+02 -1.972088e+03  2.826576e+03 0.0022 0.0 9.0
#pdf 2 21 3.126715e-01 4.673809e-01 5000.0 2.338773e-01 9.027413e-02
</event>
<event>
4 7 1.0 5000.0 7.905138e-03 7.739137e-02
 2 -1 0 0 101   0  0.000000e+00  0.000000e+00  2.421979e+03  2.421979e+03 0.0 0.0 9.0
21 -1 0 0 103 101  0.000000e+00  0.000000e+00 -2.570171e+03  2.570171e+03 0.0 0.0 9.0
 2  1 1 2 103   0 -1.421407e+03 -9.319709e+02 -1.901355e+03  2.550318e+03 0.0022 0.0 9.0
22  1 1 2   0   0  1.421407e+03  9.319709e+02  1.753163e+03  2.441833e+03 0.0 0.0 9.0
#pdf 2 21 3.726122e-01 3.954110e-01 5000.0 1.683703e-01 1.467209e-01
</event>
<event>
4 7 1.0 5000.0 7.905138e-03 7.739137e-02
 2 -1 0 0 101   0  0.000000e+00  0.000000e+00  2.039235e+03  2.039235e+03 0.0 0.0 9.0
21 -1 0 0 103 101  0.000000e+00  0.000000e+00 -3.044376e+03  3.044376e+03 0.0 0.0 9.0
 2  1 1 2 103   0 -3.641576e+02 -1.806648e+03 -2.213125e+03  2.880019e+03 0.0022 0.0 9.0
22  1 1 2   0   0  3.641576e+02  1.806648e+03  1.207984e+03  2.203591e+03 0.0 0.0 9.0
#pdf 2 21 3.137284e-01 4.683655e-01 5000.0 2.326227e-01 8.962573e-02
</event>
<event>
4 7 1.0 5000.0 7.905138e-03 7.739137e-02
 2 -1 0 0 101   0  0.000000e+00  0.000000e+00  2.314749e+03  2.314749e+03 0.0 0.0 9.0
21 -1 0 0 103 101  0.000000e+00  0.000000e+00 -2.893847e+03  2.893847e+03 0.0 0.0 9.0
22  1 1 2   0   0 -5.138205e+02  2.215859e+03  9.528555e+02  2.466166e+03 0.0 0.0 9.0
 2  1 1 2 103   0  5.138205e+02 -2.215859e+03 -1.531954e+03  2.742430e+03 0.0022 0.0 9.0
#pdf 2 21 3.561153e-01 4.452073e-01 5000.0 1.851940e-01 1.057411e-01
</event>
<event>
4 7 1.0 5000.0 7.905138e-03 7.739137e-02
 2 -1 0 0 101   0  0.000000e+00  0.000000e+00  1.932485e+03  1.932485e+03 0.0 0.0 9.0
21 -1 0 0 103 101  0.000000e+00  0.000000e+00 -3.194631e+03  3.194631e+03 0.0 0.0 9.0
22  1 1 2   0   0  1.967226e+02 -2.023810e+03 -2.104372e+03  2.926241e+03 0.0 0.0 9.0
 2  1 1 2 103   0 -1.967226e+02  2.023810e+03  8.422263e+02  2.200875e+03 0.0022 0.0 9.0
#pdf 2 21 2.973054e-01 4.914817e-01 5000.0 2.525049e-01 7.530143e-02
</event>
<event>
4 7 1.0 5000.0 7.905138e-03 7.739137e-02
 2 -1 0 0 101   0  0.000000e+00  0.000000e+00  2.139867e+03  2.139867e+03 0.0 0.0 9.0
21 -1 0 0 103 101  0.000000e+00  0.000000e+00 -2.259008e+03  2.259008e+03 0.0 0.0 9.0
 2  1 1 2 103   0  2.038125e+03 -5.372248e+02 -6.854297e+02  2.216389e+03 0.0022 0.0 9.0
22  1 1 2   0   0 -2.038125e+03  5.372248e+02  5.662879e+02  2.182486e+03 0.0 0.0 9.0
#pdf 2 21 3.292103e-01 3.475398e-01 5000.0 2.146227e-01 1.943106e-01
</event>
<event>
4 7 1.0 5000.0 7.905138e-03 7.739137e-02
 2 -1 0 0 101   0  0.000000e+00  0.000000e+00  3.886728e+03  3.886728e+03 0.0 0.0 9.0
21 -1 0 0 103 101  0.000000e+00  0.000000e+00 -1.611407e+03  1.611407e+03 0.0 0.0 9.0
22  1 1 2   0   0 -1.667325e+03 -2.500779e+02  3.169274e+03  3.589820e+03 0.0 0.0 9.0
 2  1 1 2 103   0  1.667325e+03  2.500779e+02 -8.939531e+02  1.908315e+03 0.0022 0.0 9.0
#pdf 2 21 5.979581e-01 2.479088e-01 5000.0 2.946166e-02 3.164210e-01
</event>
<event>
4 7 1.0 5000.0 7.905138e-03 7.739137e-02
21 -1 0 0 103 101  0.000000e+00  0.000000e+00  3.018695e+03  3.018695e+03 0.0 0.0 9.0
 2 -1 0 0 101   0  0.000000e+00  0.000000e+00 -2.032368e+03  2.032368e+03 0.0 0.0 9.0
 2  1 1 2 103   0 -1.446412e+03  2.009882e+03  4.340214e+02  2.513982e+03 0.0022 0.0 9.0
22  1 1 2   0   0  1.446412e+03 -2.009882e+03  5.523052e+02  2.537080e+03 0.0 0.0 9.0
#pdf 21 2 4.644145e-01 3.126720e-01 5000.0 4.560660e-03 3.085832e-02
</event>
<event>
4 7 1.0 5000.0 7.905138e-03 7.739137e-02
21 -1 0 0 103 101  0.000000e+00  0.000000e+00  2.970477e+03  2.970477e+03 0.0 0.0 9.0
 2 -1 0 0 101   0  0.000000e+00  0.000000e+00 -2.109885e+03  2.109885e+03 0.0 0.0 9.0
22  1 1 2   0   0  6.835750e+02 -9.933587e+02  2.656397e+03  2.917273e+03 0.0 0.0 9.0
 2  1 1 2 103   0 -6.835750e+02  9.933587e+02 -1.795806e+03  2.163089e+03 0.0022 0.0 9.0
#pdf 21 2 4.569965e-01 3.245977e-01 5000.0 5.032971e-03 2.665042e-02
</event>
<event>
4 7 1.0 5000.0 7.905138e-03 7.739137e-02
21 -1 0 0 103 101  0.000000e+00  0.000000e+00  2.642628e+03  2.642628e+03 0.0 0.0 9.0
 2 -1 0 0 101   0  0.000000e+00  0.000000e+00 -2.399309e+03  2.399309e+03 0.0 0.0 9.0
 2  1 1 2 103   0 -1.140728e+02 -2.132026e+03  1.458107e+03  2.585464e+03 0.0022 0.0 9.0
22  1 1 2   0   0  1.140728e+02  2.132026e+03 -1.214787e+03  2.456473e+03 0.0 0.0 9.0
#pdf 21 2 4.065581e-01 3.691244e-01 5000.0 9.647169e-03 1.540300e-02
</event>
<event>
4 7 1.0 5000.0 7.905138e-03 7.739137e-02
21 -1 0 0 103 101  0.000000e+00  0.000000e+00  2.285516e+03  2.285516e+03 0.0 0.0 9.0
 2 -1 0 0 101   0  0.000000e+00  0.000000e+00 -3.217223e+03  3.217223e+03 0.0 0.0 9.0
 2  1 1 2 103   0  1.853011e+03  5.897650e+02  1.451686e+03  2.426698e+03 0.0022 0.0 9.0
22  1 1 2   0   0 -1.853011e+03 -5.897650e+02 -2.383392e+03  3.076041e+03 0.0 0.0 9.0
#pdf 21 2 3.516179e-01 4.949573e-01 5000.0 1.913352e-02 3.021152e-03
</event>
<event>
4 7 1.0 5000.0 7.905138e-03 7.739137e-02
 2 -1 0 0 101   0  0.000000e+00  0.000000e+00  2.962460e+03  2.962460e+03 0.0 0.0 9.0
21 -1 0 0 103 101  0.000000e+00  0.000000e+00 -2.123393e+03  2.123393e+03 0.0 0.0 9.0
 2  1 1 2 103   0 -5.003999e+02 -1.064375e+03  2.665524e+03  2.913471e+03 0.0022 0.0 9.0
22  1 1 2   0   0  5.003999e+02  1.064375e+03 -1.826458e+03  2.172382e+03 0.0 0.0 9.0
#pdf 2 21 4.557630e-01 3.266759e-01 5000.0 9.817417e-02 2.175204e-01
</event>
<event>
4 7 1.0 5000.0 7.905138e-03 7.739137e-02
 2 -1 0 0 101   0  0.000000e+00  0.000000e+00  2.830795e+03  2.830795e+03 0.0 0.0 9.0
21 -1 0 0 103 101  0.000000e+00  0.000000e+00 -2.202143e+03  2.202143e+03 0.0 0.0 9.0
 2  1 1 2 103   0  1.320620e+03 -1.168491e+03  2.095878e+03  2.738998e+03 0.0022 0.0 9.0
22  1 1 2   0   0 -1.320620e+03  1.168491e+03 -1.467225e+03  2.293940e+03 0.0 0.0 9.0
#pdf 2 21 4.355070e-01 3.387912e-01 5000.0 1.130545e-01 2.038693e-01
</event>
<event>
4 7 1.0 5000.0 7.905138e-03 7.739137e-02
 2 -1 0 0 101   0  0.000000e+00  0.000000e+00  2.517428e+03  2.517428e+03 0.0 0.0 9.0
21 -1 0 0 103 101  0.000000e+00  0.000000e+00 -2.474578e+03  2.474578e+03 0.0 0.0 9.0
 2  1 1 2 103   0 -1.357874e+03  1.802038e+03  1.088428e+03  2.505162e+03 0.0022 0.0 9.0
22  1 1 2   0   0  1.357874e+03 -1.802038e+03 -1.045578e+03  2.486845e+03 0.0 0.0 9.0
#pdf 2 21 3.872967e-01 3.807044e-01 5000.0 1.542197e-01 1.604838e-01
</event>
<event>
4 7 1.0 5000.0 7.905138e-03 7.739137e-02
 2 -1 0 0 101   0  0.000000e+00  0.000000e+00  1.698856e+03  1.698856e+03 0.0 0.0 9.0
21 -1 0 0 103 101  0.000000e+00  0.000000e+00 -3.468463e+03  3.468463e+03 0.0 0.0 9.0
22  1 1 2   0   0 -1.843741e+03 -6.106844e+02 -2.434573e+03  3.114396e+03 0.0 0.0 9.0
 2  1 1 2 103   0  1.843741e+03  6.106844e+02  6.649660e+02  2.052924e+03 0.0022 0.0 9.0
#pdf 2 21 2.613625e-01 5.336098e-01 5000.0 2.985085e-01 5.347240e-02
</event>
<event>
4 7 1.0 5000.0 7.905138e-03 7.739137e-02
21 -1 0 0 103 101  0.000000e+00  0.000000e+00  3.700808e+03  3.700808e+03 0.0 0.0 9.0
 2 -1 0 0 101   0  0.000000e+00  0.000000e+00 -1.683285e+03  1.683285e+03 0.0 0.0 9.0
22  1 1 2   0   0  6.500122e+02 -2.229668e+03  1.994698e+03  3.061496e+03 0.0 0.0 9.0
 2  1 1 2 103   0 -6.500122e+02  2.229668e+03  2.282476e+01  2.322597e+03 0.0022 0.0 9.0
#pdf 21 2 5.693550e-01 2.589669e-01 5000.0 1.035092e-03 5.967538e-02
</event>
<event>
4 7 1.0 5000.0 7.905138e-03 7.739137e-02
 2 -1 0 0 101   0  0.000000e+00  0.000000e+00  1.561874e+03  1.561874e+03 0.0 0.0 9.0
21 -1 0 0 103 101  0.000000e+00  0.000000e+00 -4.006080e+03  4.006080e+03 0.0 0.0 9.0
22  1 1 2   0   0  1.711477e+03 -5.459535e+02 -3.159363e+03  3.634390e+03 0.0 0.0 9.0
 2  1 1 2 103   0 -1.711477e+03  5.459535e+02  7.151574e+02  1.933563e+03 0.0022 0.0 9.0
#pdf 2 21 2.402883e-01 6.163200e-01 5000.0 3.266769e-01 2.438838e-02
</event>
<event>
4 7 1.0 5000.0 7.905138e-03 7.739137e-02
 2 -1 0 0 101   0  0.000000e+00  0.000000e+00  2.668990e+03  2.668990e+03 0.0 0.0 9.0
21 -1 0 0 103 101  0.000000e+00  0.000000e+00 -2.301509e+03  2.301509e+03 0.0 0.0 9.0
22  1 1 2   0   0 -1.826384e+03  1.657618e+03 -6.050298e+01  2.467192e+03 0.0 0.0 9.0
 2  1 1 2 103   0  1.826384e+03 -1.657618e+03  4.279846e+02  2.503307e+03 0.0022 0.0 9.0
#pdf 2 21 4.106139e-01 3.540783e-01 5000.0 1.332798e-01 1.873357e-01
</event>
<event>
4 7 1.0 5000.0 7.905138e-03 7.739137e-02
 2 -1 0 0 101   0  0.000000e+00  0.000000e+00  1.817390e+03  1.817390e+03 0.0 0.0 9.0
21 -1 0 0 103 101  0.000000e+00  0.000000e+00 -3.424506e+03  3.424506e+03 0.0 0.0 9.0
22  1 1 2   0   0  8.292277e+02 -2.078102e+03  3.556891e+02  2.265534e+03 0.0 0.0 9.0
 2  1 1 2 103   0 -8.292277e+02  2.078102e+03 -1.962805e+03  2.976362e+03 0.0022 0.0 9.0
#pdf 2 21 2.795984e-01 5.268470e-01 5000.0 2.747865e-01 5.662751e-02
</event>
<event>
4 7 1.0 5000.0 7.905138e-03 7.739137e-02
21 -1 0 0 103 101  0.000000e+00  0.000000e+00  3.455496e+03  3.455496e+03 0.0 0.0 9.0
 2 -1 0 0 101   0  0.000000e+00  0.000000e+00 -1.632571e+03  1.632571e+03 0.0 0.0 9.0
22  1 1 2   0   0  6.095321e+02 -2.285612e+03  6.822641e+02  2.461918e+03 0.0 0.0 9.0
 2  1 1 2 103   0 -6.095321e+02  2.285612e+03  1.140661e+03  2.626150e+03 0.0022 0.0 9.0
#pdf 21 2 5.316148e-01 2.511648e-01 5000.0 1.807712e-03 6.578458e-02
</event>
<event>
4 7 1.0 5000.0 7.905138e-03 7.739137e-02
21 -1 0 0 103 101  0.000000e+00  0.000000e+00  4.081488e+03  4.081488e+03 0.0 0.0 9.0
 2 -1 0 0 101   0  0.000000e+00  0.000000e+00 -1.519536e+03  1.519536e+03 0.0 0.0 9.0
 2  1 1 2 103   0 -1.077602e+03  1.573176e+03 -5.203364e+02  1.976578e+03 0.0022 0.0 9.0
22  1 1 2   0   0  1.077602e+03 -1.573176e+03  3.082289e+03  3.624447e+03 0.0 0.0 9.0
#pdf 21 2 6.279213e-01 2.337747e-01 5000.0 4.056906e-04 8.170370e-02
</event>
<event>
4 7 1.0 5000.0 7.905138e-03 7.739137e-02
21 -1 0 0 103 101  0.000000e+00  0.000000e+00  2.011578e+03  2.011578e+03 0.0 0.0 9.0
 2 -1 0 0 101   0  0.000000e+00  0.000000e+00 -3.024094e+03  3.024094e+03 0.0 0.0 9.0
 2  1 1 2 103   0 -1.115844e+03  2.182110e+03 -2.239268e+02  2.461068e+03 0.0022 0.0 9.0
22  1 1 2   0   0  1.115844e+03 -2.182110e+03 -7.885892e+02  2.574604e+03 0.0 0.0 9.0
#pdf 21 2 3.094735e-01 4.652452e-01 5000.0 3.210380e-02 4.510829e-03
</event>
<event>
4 7 1.0 5000.0 7.905138e-03 7.739137e-02
21 -1 0 0 103 101  0.000000e+00  0.000000e+00  2.659714e+03  2.659714e+03 0.0 0.0 9.0
 2 -1 0 0 101   0  0.000000e+00  0.000000e+00 -1.978824e+03  1.978824e+03 0.0 0.0 9.0
 2  1 1 2 103   0 -1.620826e+03 -1.524925e+03  9.038913e+02  2.401977e+03 0.0022 0.0 9.0
22  1 1 2   0   0  1.620826e+03  1.524925e+03 -2.230014e+02  2.236561e+03 0.0 0.0 9.0
#pdf 21 2 4.091868e-01 3.044345e-01 5000.0 9.329944e-03 3.414528e-02
</event>
<event>
4 7 1.0 5000.0 7.905138e-03 7.739137e-02
21 -1 0 0 103 101  0.000000e+00  0.000000e+00  4.565047e+03  4.565047e+03 0.0 0.0 9.0
 2 -1 0 0 101   0  0.000000e+00  0.000000e+00 -1.416252e+03  1.416252e+03 0.0 0.0 9.0
22  1 1 2   0   0  1.874838e+03 -1.249734e+03  1.885032e+02  2.261059e+03 0.0 0.0 9.0
 2  1 1 2 103   0 -1.874838e+03  1.249734e+03  2.960292e+03  3.720240e+03 0.0022 0.0 9.0
#pdf 21 2 7.023150e-01 2.178848e-01 5000.0 1.032543e-04 9.994832e-02
</event>
<event>
4 7 1.0 5000.0 7.905138e-03 7.739137e-02
21 -1 0 0 103 101  0.000000e+00  0.000000e+00  2.601038e+03  2.601038e+03 0.0 0.0 9.0
 2 -1 0 0 101   0  0.000000e+00  0.000000e+00 -2.568382e+03  2.568382e+03 0.0 0.0 9.0
 2  1 1 2 103   0  2.421787e+03  2.178879e+02  8.926618e+02  2.590246e+03 0.0022 0.0 9.0
22  1 1 2   0   0 -2.421787e+03 -2.178879e+02 -8.600064e+02  2.579174e+03 0.0 0.0 9.0
#pdf 21 2 4.001596e-01 3.951357e-01 5000.0 1.045876e-02 1.114036e-02
</event>
<event>
4 7 1.0 5000.0 7.905138e-03 7.739137e-02
21 -1 0 0 103 101  0.000000e+00  0.000000e+00  1.535148e+03  1.535148e+03 0.0 0.0 9.0
 2 -1 0 0 101   0  0.000000e+00  0.000000e+00 -4.037884e+03  4.037884e+03 0.0 0.0 9.0
 2  1 1 2 103   0 -2.075595e+03 -5.418864e+02 -2.665742e+03  3.421683e+03 0.0022 0.0 9.0
22  1 1 2   0   0  2.075595e+03  5.418864e+02  1.630061e+02  2.151350e+03 0.0 0.0 9.0
#pdf 21 2 2.361767e-01 6.212129e-01 5000.0 7.930499e-02 4.541800e-04
</event>
<event>
4 7 1.0 5000.0 7.905138e-03 7.739137e-02
 2 -1 0 0 101   0  0.000000e+00  0.000000e+00  2.733200e+03  2.733200e+03 0.0 0.0 9.0
21 -1 0 0 103 101  0.000000e+00  0.000000e+00 -2.208005e+03  2.208005e+03 0.0 0.0 9.0
 2  1 1 2 103   0 -1.809850e+03  2.006298e+02 -1.395769e+03  2.294337e+03 0.0022 0.0 9.0
22  1 1 2   0   0  1.809850e+03 -2.006298e+02  1.920964e+03  2.646869e+03 0.0 0.0 9.0
#pdf 2 21 4.204924e-01 3.396931e-01 5000.0 1.249843e-01 2.028726e-01
</event>
<event>
4 7 1.0 5000.0 7.905138e-03 7.739137e-02
21 -1 0 0 103 101  0.000000e+00  0.000000e+00  3.420953e+03  3.420953e+03 0.0 0.0 9.0
 2 -1 0 0 101   0  0.000000e+00  0.000000e+00 -1.886156e+03  1.886156e+03 0.0 0.0 9.0
22  1 1 2   0   0 -2.507759e+03 -4.044554e+02  7.710182e+02  2.654601e+03 0.0 0.0 9.0
 2  1 1 2 103   0  2.507759e+03  4.044554e+02  7.637787e+02  2.652507e+03 0.0022 0.0 9.0
#pdf 21 2 5.263004e-01 2.901778e-01 5000.0 1.950034e-03 4.065164e-02
</event>
<event>
4 7 1.0 5000.0 7.905138e-03 7.739137e-02
21 -1 0 0 103 101  0.000000e+00  0.000000e+00  3.184454e+03  3.184454e+03 0.0 0.0 9.0
 2 -1 0 0 101   0  0.000000e+00  0.000000e+00 -1.952086e+03  1.952086e+03 0.0 0.0 9.0
22  1 1 2   0   0  2.206620e+03 -8.863184e+01 -5.759147e+02  2.282259e+03 0.0 0.0 9.0
 2  1 1 2 103   0 -2.206620e+03  8.863184e+01  1.808283e+03  2.854280e+03 0.0022 0.0 9.0
#pdf 21 2 4.899160e-01 3.003209e-01 5000.0 3.236134e-03 3.586846e-02
</event>
<event>
4 7 1.0 5000.0 7.905138e-03 7.739137e-02
 2 -1 0 0 101   0  0.000000e+00  0.000000e+00  2.275145e+03  2.275145e+03 0.0 0.0 9.0
21 -1 0 0 103 101  0.000000e+00  0.000000e+00 -2.491361e+03  2.491361e+03 0.0 0.0 9.0
 2  1 1 2 103   0  2.060599e+03 -4.251118e+01 -1.301113e+03  2.437370e+03 0.0022 0.0 9.0
22  1 1 2   0   0 -2.060599e+03  4.251118e+01  1.084897e+03  2.329137e+03 0.0 0.0 9.0
#pdf 2 21 3.500223e-01 3.832863e-01 5000.0 1.916445e-01 1.580123e-01
</event>
<event>
4 7 1.0 5000.0 7.905138e-03 7.739137e-02
 2 -1 0 0 101   0  0.000000e+00  0.000000e+00  3.078448e+03  3.078448e+03 0.0 0.0 9.0
21 -1 0 0 103 101  0.000000e+00  0.000000e+00 -2.089742e+03  2.089742e+03 0.0 0.0 9.0
22  1 1 2   0   0  7.691170e+02 -2.343529e+03  1.096657e+03  2.699319e+03 0.0 0.0 9.0
 2  1 1 2 103   0 -7.691170e+02  2.343529e+03 -1.079514e+02  2.468870e+03 0.0022 0.0 9.0
#pdf 2 21 4.736073e-01 3.214988e-01 5000.0 8.622444e-02 2.235021e-01
</event>
<event>
4 7 1.0 5000.0 7.905138e-03 7.739137e-02
21 -1 0 0 103 101  0.000000e+00  0.000000e+00  2.774607e+03  2.774607e+03 0.0 0.0 9.0
 2 -1 0 0 101   0  0.000000e+00  0.000000e+00 -2.470957e+03  2.470957e+03 0.0 0.0 9.0
 2  1 1 2 103   0 -3.378180e+02  1.216694e+03 -2.145817e+03  2.489779e+03 0.0022 0.0 9.0
22  1 1 2   0   0  3.378180e+02 -1.216694e+03  2.449467e+03  2.755785e+03 0.0 0.0 9.0
#pdf 21 2 4.268626e-01 3.801473e-01 5000.0 7.445361e-03 1.345107e-02
</event>
<event>
4 7 1.0 5000.0 7.905138e-03 7.739137e-02
 2 -1 0 0 101   0  0.000000e+00  0.000000e+00  2.953683e+03  2.953683e+03 0.0 0.0 9.0
21 -1 0 0 103 101  0.000000e+00  0.000000e+00 -2.090383e+03  2.090383e+03 0.0 0.0 9.0
 2  1 1 2 103   0 -2.342813e+03  6.198671e+02  9.887989e+02  2.617390e+03 0.0022 0.0 9.0
22  1 1 2   0   0  2.342813e+03 -6.198671e+02 -1.254992e+02  2.426676e+03 0.0 0.0 9.0
#pdf 2 21 4.544128e-01 3.215974e-01 5000.0 9.912380e-02 2.233873e-01
</event>
<event>
4 7 1.0 5000.0 7.905138e-03 7.739137e-02
 2 -1 0 0 101   0  0.000000e+00  0.000000e+00  2.478883e+03  2.478883e+03 0.0 0.0 9.0
21 -1 0 0 103 101  0.000000e+00  0.000000e+00 -2.503331e+03  2.503331e+03 0.0 0.0 9.0
 2  1 1 2 103   0 -1.216170e+03 -1.738975e+03  1.292538e+03  2.484705e+03 0.0022 0.0 9.0
22  1 1 2   0   0  1.216170e+03  1.738975e+03 -1.316986e+03  2.497510e+03 0.0 0.0 9.0
#pdf 2 21 3.813667e-01 3.851278e-01 5000.0 1.598477e-01 1.562636e-01
</event>
<event>
4 7 1.0 5000.0 7.905138e-03 7.739137e-02
 2 -1 0 0 101   0  0.000000e+00  0.000000e+00  2.201540e+03  2.201540e+03 0.0 0.0 9.0
21 -1 0 0 103 101  0.000000e+00  0.000000e+00 -2.837446e+03  2.837446e+03 0.0 0.0 9.0
22  1 1 2   0   0 -1.546687e+03 -8.164646e+02  1.481905e+03  2.292356e+03 0.0 0.0 9.0
 2  1 1 2 103   0  1.546687e+03  8.164646e+02 -2.117811e+03  2.746630e+03 0.0022 0.0 9.0
#pdf 2 21 3.386985e-01 4.365302e-01 5000.0 2.039719e-01 1.122706e-01
</event>
<event>
4 7 1.0 5000.0 7.905138e-03 7.739137e-02
21 -1 0 0 103 101  0.000000e+00  0.000000e+00  2.011719e+03  2.011719e+03 0.0 0.0 9.0
 2 -1 0 0 101   0  0.000000e+00  0.000000e+00 -2.961285e+03  2.961285e+03 0.0 0.0 9.0
22  1 1 2   0   0 -3.775578e+02  2.350554e+03  7.346551e+01  2.381817e+03 0.0 0.0 9.0
 2  1 1 2 103   0  3.775578e+02 -2.350554e+03 -1.023032e+03  2.591187e+03 0.0022 0.0 9.0
#pdf 21 2 3.094952e-01 4.555823e-01 5000.0 3.209521e-02 5.128441e-03
</event>
<event>
4 7 1.0 5000.0 7.905138e-03 7.739137e-02
 2 -1 0 0 101   0  0.000000e+00  0.000000e+00  3.761488e+03  3.761488e+03 0.0 0.0 9.0
21 -1 0 0 103 101  0.000000e+00  0.000000e+00 -1.743505e+03  1.743505e+03 0.0 0.0 9.0
 2  1 1 2 103   0 -1.785858e+03  1.425234e+03  2.252066e+03  3.208174e+03 0.0022 0.0 9.0
22  1 1 2   0   0  1.785858e+03 -1.425234e+03 -2.340830e+02  2.296818e+03 0.0 0.0 9.0
#pdf 2 21 5.786904e-01 2.682315e-01 5000.0 3.557870e-02 2.894957e-01
</event>
<event>
4 7 1.0 5000.0 7.905138e-03 7.739137e-02
21 -1 0 0 103 101  0.000000e+00  0.000000e+00  1.950956e+03  1.950956e+03 0.0 0.0 9.0
 2 -1 0 0 101   0  0.000000e+00  0.000000e+00 -3.269755e+03  3.269755e+03 0.0 0.0 9.0
22  1 1 2   0   0  5.089001e+02 -8.429890e+02  1.744401e+03  2.003134e+03 0.0 0.0 9.0
 2  1 1 2 103   0 -5.089001e+02  8.429890e+02 -3.063200e+03  3.217578e+03 0.0022 0.0 9.0
#pdf 21 2 3.001471e-01 5.030393e-01 5000.0 3.594497e-02 2.702139e-03
</event>
<event>
4 7 1.0 5000.0 7.905138e-03 7.739137e-02
21 -1 0 0 103 101  0.000000e+00  0.000000e+00  3.172315e+03  3.172315e+03 0.0 0.0 9.0
 2 -1 0 0 101   0  0.000000e+00  0.000000e+00 -1.970357e+03  1.970357e+03 0.0 0.0 9.0
22  1 1 2   0   0 -1.720945e+03 -9.135751e+02  2.212232e+03  2.947922e+03 0.0 0.0 9.0
 2  1 1 2 103   0  1.720945e+03  9.135751e+02 -1.010275e+03  2.194750e+03 0.0022 0.0 9.0
#pdf 21 2 4.880484e-01 3.031319e-01 5000.0 3.319275e-03 3.468571e-02
</event>
<event>
4 7 1.0 5000.0 7.905138e-03 7.739137e-02
21 -1 0 0 103 101  0.000000e+00  0.000000e+00  2.272570e+03  2.272570e+03 0.0 0.0 9.0
 2 -1 0 0 101   0  0.000000e+00  0.000000e+00 -2.670938e+03  2.670938e+03 0.0 0.0 9.0
22  1 1 2   0   0 -1.862747e+03 -7.364183e+02  1.239985e+03  2.355780e+03 0.0 0.0 9.0
 2  1 1 2 103   0  1.862747e+03  7.364183e+02 -1.638353e+03  2.587728e+03 0.0022 0.0 9.0
#pdf 21 2 3.496262e-01 4.109135e-01 5000.0 1.960983e-02 9.127009e-03
</event>
<event>
4 7 1.0 5000.0 7.905138e-03 7.739137e-02
21 -1 0 0 103 101  0.000000e+00  0.000000e+00  1.925583e+03  1.925583e+03 0.0 0.0 9.0
 2 -1 0 0 101   0  0.000000e+00  0.000000e+00 -3.332800e+03  3.332800e+03 0.0 0.0 9.0
22  1 1 2   0   0  1.292821e+03  2.135803e+03 -2.577629e+02  2.509877e+03 0.0 0.0 9.0
 2  1 1 2 103   0 -1.292821e+03 -2.135803e+03 -1.149454e+03  2.748506e+03 0.0022 0.0 9.0
#pdf 21 2 2.962435e-01 5.127385e-01 5000.0 3.774955e-02 2.361501e-03
</event>
<event>
4 7 1.0 5000.0 7.905138e-03 7.739137e-02
21 -1 0 0 103 101  0.000000e+00  0.000000e+00  4.013319e+03  4.013319e+03 0.0 0.0 9.0
 2 -1 0 0 101   0  0.000000e+00  0.000000e+00 -1.636017e+03  1.636017e+03 0.0 0.0 9.0
22  1 1 2   0   0 -1.584193e+03  1.910667e+03  1.890653e+03  3.120078e+03 0.0 0.0 9.0
 2  1 1 2 103   0  1.584193e+03 -1.910667e+03  4.866496e+02  2.529258e+03 0.0022 0.0 9.0
#pdf 21 2 6.174337e-01 2.516949e-01 5000.0 4.834839e-04 6.535423e-02
</event>
<event>
4 7 1.0 5000.0 7.905138e-03 7.739137e-02
21 -1 0 0 103 101  0.000000e+00  0.000000e+00  3.092229e+03  3.092229e+03 0.0 0.0 9.0
 2 -1 0 0 101   0  0.000000e+00  0.000000e+00 -1.851715e+03  1.851715e+03 0.0 0.0 9.0
22  1 1 2   0   0  1.827167e+03 -1.451100e+02  2.209383e+03  2.870709e+03 0.0 0.0 9.0
 2  1 1 2 103   0 -1.827167e+03  1.451100e+02 -9.688693e+02  2.073235e+03 0.0022 0.0 9.0
#pdf 21 2 4.757275e-01 2.848792e-01 5000.0 3.922183e-03 4.334801e-02
</event>
<event>
4 7 1.0 5000.0 7.905138e-03 7.739137e-02
 2 -1 0 0 101   0  0.000000e+00  0.000000e+00  2.214034e+03  2.214034e+03 0.0 0.0 9.0
21 -1 0 0 103 101  0.000000e+00  0.000000e+00 -2.851338e+03  2.851338e+03 0.0 0.0 9.0
22  1 1 2   0   0  1.437153e+03  1.986922e+03 -8.704764e+02  2.602114e+03 0.0 0.0 9.0
 2  1 1 2 103   0 -1.437153e+03 -1.986922e+03  2.331722e+02  2.463257e+03 0.0022 0.0 9.0
#pdf 2 21 3.406206e-01 4.386674e-01 5000.0 2.018504e-01 1.106436e-01
</event>
<event>
4 7 1.0 5000.0 7.905138e-03 7.739137e-02
21 -1 0 0 103 101  0.000000e+00  0.000000e+00  1.417240e+03  1.417240e+03 0.0 0.0 9.0
 2 -1 0 0 101   0  0.000000e+00  0.000000e+00 -4.365131e+03  4.365131e+03 0.0 0.0 9.0
22  1 1 2   0   0  1.478486e+03 -1.756586e+03 -2.585801e+03  3.458017e+03 0.0 0.0 9.0
 2  1 1 2 103   0 -1.478486e+03  1.756586e+03 -3.620898e+02  2.324355e+03 0.0022 0.0 9.0
#pdf 21 2 2.180370e-01 6.715587e-01 5000.0 9.975380e-02 1.873686e-04
</event>
<event>
4 7 1.0 5000.0 7.905138e-03 7.739137e-02
21 -1 0 0 103 101  0.000000e+00  0.000000e+00  1.270128e+03  1.270128e+03 0.0 0.0 9.0
 2 -1 0 0 101   0  0.000000e+00  0.000000e+00 -3.493401e+03  3.493401e+03 0.0 0.0 9.0
22  1 1 2   0   0  2.899625e+02 -2.050419e+03 -6.755137e+02  2.178214e+03 0.0 0.0 9.0
 2  1 1 2 103   0 -2.899625e+02  2.050419e+03 -1.547759e+03  2.585315e+03 0.0022 0.0 9.0
#pdf 21 2 1.954043e-01 5.374463e-01 5000.0 1.335558e-01 1.660255e-03
</event>
<event>
4 7 1.0 5000.0 7.905138e-03 7.739137e-02
21 -1 0 0 103 101  0.000000e+00  0.000000e+00  2.636412e+03  2.636412e+03 0.0 0.0 9.0
 2 -1 0 0 101   0  0.000000e+00  0.000000e+00 -2.335710e+03  2.335710e+03 0.0 0.0 9.0
22  1 1 2   0   0  2.323667e+03  9.874018e+01 -7.165194e+02  2.433635e+03 0.0 0.0 9.0
 2  1 1 2 103   0 -2.323667e+03 -9.874018e+01  1.017222e+03  2.538487e+03 0.0022 0.0 9.0
#pdf 21 2 4.056019e-01 3.593400e-01 5000.0 9.764801e-03 1.738844e-02
</event>
<event>
4 7 1.0 5000.0 7.905138e-03 7.739137e-02
21 -1 0 0 103 101  0.000000e+00  0.000000e+00  2.640558e+03  2.640558e+03 0.0 0.0 9.0
 2 -1 0 0 101   0  0.000000e+00  0.000000e+00 -2.161016e+03  2.161016e+03 0.0 0.0 9.0
 2  1 1 2 103   0  2.596970e+02 -1.914984e+03 -1.171451e+03  2.259846e+03 0.0022 0.0 9.0
22  1 1 2   0   0 -2.596970e+02  1.914984e+03  1.650993e+03  2.541729e+03 0.0 0.0 9.0
#pdf 21 2 4.062398e-01 3.324640e-01 5000.0 9.686199e-03 2.420414e-02
</event>
<event>
4 7 1.0 5000.0 7.905138e-03 7.739137e-02
21 -1 0 0 103 101  0.000000e+00  0.000000e+00  4.446689e+03  4.446689e+03 0.0 0.0 9.0
 2 -1 0 0 101   0  0.000000e+00  0.000000e+00 -1.401446e+03  1.401446e+03 0.0 0.0 9.0
22  1 1 2   0   0  1.037714e+03  9.129167e+02 -9.123819e+02  1.656112e+03 0.0 0.0 9.0
 2  1 1 2 103   0 -1.037714e+03 -9.129167e+02  3.957625e+03  4.192024e+03 0.0022 0.0 9.0
#pdf 21 2 6.841061e-01 2.156071e-01 5000.0 1.478355e-04 1.029040e-01
</event>
<event>
4 7 1.0 5000.0 7.905138e-03 7.739137e-02
 2 -1 0 0 101   0  0.000000e+00  0.000000e+00  4.694718e+03  4.694718e+03 0.0 0.0 9.0
21 -1 0 0 103 101  0.000000e+00  0.000000e+00 -1.312320e+03  1.312320e+03 0.0 0.0 9.0
 2  1 1 2 103   0 -1.355697e+03 -1.760573e+03  3.527642e+02  2.249884e+03 0.0022 0.0 9.0
22  1 1 2   0   0  1.355697e+03  1.760573e+03  3.029634e+03  3.757155e+03 0.0 0.0 9.0
#pdf 2 21 7.222644e-01 2.018954e-01 5000.0 6.529165e-03 3.794165e-01
</event>
<event>
4 7 1.0 5000.0 7.905138e-03 7.739137e-02
 2 -1 0 0 101   0  0.000000e+00  0.000000e+00  3.844251e+03  3.844251e+03 0.0 0.0 9.0
21 -1 0 0 103 101  0.000000e+00  0.000000e+00 -1.608731e+03  1.608731e+03 0.0 0.0 9.0
22  1 1 2   0   0  4.814409e+02 -1.561606e+03  3.172966e+03  3.569049e+03 0.0 0.0 9.0
 2  1 1 2 103   0 -4.814409e+02  1.561606e+03 -9.374459e+02  1.883933e+03 0.0022 0.0 9.0
#pdf 2 21 5.914233e-01 2.474971e-01 5000.0 3.144043e-02 3.169785e-01
</event>
<event>
4 7 1.0 5000.0 7.905138e-03 7.739137e-02
 2 -1 0 0 101   0  0.000000e+00  0.000000e+00  3.153921e+03  3.153921e+03 0.0 0.0 9.0
21 -1 0 0 103 101  0.000000e+00  0.000000e+00 -2.842031e+03  2.842031e+03 0.0 0.0 9.0
22  1 1 2   0   0  1.874701e+03  1.151561e+03  2.189201e+03  3.103740e+03 0.0 0.0 9.0
 2  1 1 2 103   0 -1.874701e+03 -1.151561e+03 -1.877311e+03  2.892212e+03 0.0022 0.0 9.0
#pdf 2 21 4.852187e-01 4.372355e-01 5000.0 7.901121e-02 1.117322e-01
</event>
<event>
4 7 1.0 5000.0 7.905138e-03 7.739137e-02
 2 -1 0 0 101   0  0.000000e+00  0.000000e+00  1.702452e+03  1.702452e+03 0.0 0.0 9.0
21 -1 0 0 103 101  0.000000e+00  0.000000e+00 -3.540145e+03  3.540145e+03 0.0 0.0 9.0
 2  1 1 2 103   0 -1.781800e+03 -1.092112e+03 -2.294298e+03  3.103437e+03 0.0022 0.0 9.0
22  1 1 2   0   0  1.781800e+03  1.092112e+03  4.566051e+02  2.139160e+03 0.0 0.0 9.0
#pdf 2 21 2.619157e-01 5.446377e-01 5000.0 2.977804e-01 4.860144e-02
</event>
<event>
4 7 1.0 5000.0 7.905138e-03 7.739137e-02
 2 -1 0 0 101   0  0.000000e+00  0.000000e+00  2.734684e+03  2.734684e+03 0.0 0.0 9.0
21 -1 0 0 103 101  0.000000e+00  0.000000e+00 -2.327660e+03  2.327660e+03 0.0 0.0 9.0
 2  1 1 2 103   0  3.976398e+02  1.930183e+03 -1.376942e+03  2.404100e+03 0.0022 0.0 9.0
22  1 1 2   0   0 -3.976398e+02 -1.930183e+03  1.783967e+03  2.658244e+03 0.0 0.0 9.0
#pdf 2 21 4.207207e-01 3.581015e-01 5000.0 1.247967e-01 1.831192e-01
</event>
<event>
4 7 1.0 5000.0 7.905138e-03 7.739137e-02
21 -1 0 0 103 101  0.000000e+00  0.000000e+00  2.221779e+03  2.221779e+03 0.0 0.0 9.0
 2 -1 0 0 101   0  0.000000e+00  0.000000e+00 -2.735883e+03  2.735883e+03 0.0 0.0 9.0
22  1 1 2   0   0  2.182253e+03  7.084765e+01 -1.408372e+03  2.598222e+03 0.0 0.0 9.0
 2  1 1 2 103   0 -2.182253e+03 -7.084765e+01  8.942676e+02  2.359441e+03 0.0022 0.0 9.0
#pdf 21 2 3.418122e-01 4.209051e-01 5000.0 2.157904e-02 8.036926e-03
</event>
<event>
4 7 1.0 5000.0 7.905138e-03 7.739137e-02
21 -1 0 0 103 101  0.000000e+00  0.000000e+00  2.398769e+03  2.398769e+03 0.0 0.0 9.0
 2 -1 0 0 101   0  0.000000e+00  0.000000e+00 -2.488847e+03  2.488847e+03 0.0 0.0 9.0
22  1 1 2   0   0 -1.539274e+03  1.659164e+03 -9.660535e+02  2.460782e+03 0.0 0.0 9.0
 2  1 1 2 103   0  1.539274e+03 -1.659164e+03  8.759761e+02  2.426834e+03 0.0022 0.0 9.0
#pdf 21 2 3.690414e-01 3.828995e-01 5000.0 1.541900e-02 1.299563e-02
</event>
<event>
4 7 1.0 5000.0 7.905138e-03 7.739137e-02
 2 -1 0 0 101   0  0.000000e+00  0.000000e+00  1.791952e+03  1.791952e+03 0.0 0.0 9.0
21 -1 0 0 103 101  0.000000e+00  0.000000e+00 -2.887584e+03  2.887584e+03 0.0 0.0 9.0
22  1 1 2   0   0 -9.634352e+02  2.953688e+02  1.549842e+03  1.848637e+03 0.0 0.0 9.0
 2  1 1 2 103   0  9.634352e+02 -2.953688e+02 -2.645474e+03  2.830898e+03 0.0022 0.0 9.0
#pdf 2 21 2.756849e-01 4.442437e-01 5000.0 2.798145e-01 1.064568e-01
</event>
<event>
4 7 1.0 5000.0 7.905138e-03 7.739137e-02
 2 -1 0 0 101   0  0.000000e+00  0.000000e+00  2.271282e+03  2.271282e+03 0.0 0.0 9.0
21 -1 0 0 103 101  0.000000e+00  0.000000e+00 -2.428476e+03  2.428476e+03 0.0 0.0 9.0
22  1 1 2   0   0 -9.508493e+02  2.142362e+03  6.956048e+01  2.344924e+03 0.0 0.0 9.0
 2  1 1 2 103   0  9.508493e+02 -2.142362e+03 -2.267545e+02  2.354835e+03 0.0022 0.0 9.0
#pdf 2 21 3.494280e-01 3.736117e-01 5000.0 1.922808e-01 1.673853e-01
</event>
<event>
4 7 1.0 5000.0 7.905138e-03 7.739137e-02
 2 -1 0 0 101   0  0.000000e+00  0.000000e+00  5.209770e+03  5.209770e+03 0.0 0.0 9.0
21 -1 0 0 103 101  0.000000e+00  0.000000e+00 -1.241402e+03  1.241402e+03 0.0 0.0 9.0
22  1 1 2   0   0  8.077063e+02  3.557215e+02  5.009297e+03  5.086451e+03 0.0 0.0 9.0
 2  1 1 2 103   0 -8.077063e+02 -3.557215e+02 -1.040930e+03  1.364720e+03 0.0022 0.0 9.0
#pdf 2 21 8.015030e-01 1.909849e-01 5000.0 1.651051e-03 3.944692e-01
</event>
<event>
4 7 1.0 5000.0 7.905138e-03 7.739137e-02
 2 -1 0 0 101   0  0.000000e+00  0.000000e+00  3.483358e+03  3.483358e+03 0.0 0.0 9.0
21 -1 0 0 103 101  0.000000e+00  0.000000e+00 -1.722942e+03  1.722942e+03 0.0 0.0 9.0
22  1 1 2   0   0  9.768097e+02 -1.232696e+03 -1.115627e+03  1.928295e+03 0.0 0.0 9.0
 2  1 1 2 103   0 -9.768097e+02  1.232696e+03  2.876042e+03  3.278005e+03 0.0022 0.0 9.0
#pdf 2 21 5.359012e-01 2.650680e-01 5000.0 5.242818e-02 2.936382e-01
</event>
<event>
4 7 1.0 5000.0 7.905138e-03 7.739137e-02
21 -1 0 0 103 101  0.000000e+00  0.000000e+00  2.904759e+03  2.904759e+03 0.0 0.0 9.0
 2 -1 0 0 101   0  0.000000e+00  0.000000e+00 -2.051131e+03  2.051131e+03 0.0 0.0 9.0
22  1 1 2   0   0  8.532624e+02  3.334001e+01 -1.894554e+03  2.078101e+03 0.0 0.0 9.0
 2  1 1 2 103   0 -8.532624e+02 -3.334001e+01  2.748182e+03  2.877790e+03 0.0022 0.0 9.0
#pdf 21 2 4.468860e-01 3.155586e-01 5000.0 5.742318e-03 2.977504e-02
</event>
<event>
4 7 1.0 5000.0 7.905138e-03 7.739137e-02
 2 -1 0 0 101   0  0.000000e+00  0.000000e+00  1.960333e+03  1.960333e+03 0.0 0.0 9.0
21 -1 0 0 103 101  0.000000e+00  0.000000e+00 -3.180664e+03  3.180664e+03 0.0 0.0 9.0
 2  1 1 2 103   0 -2.435340e+03  5.479181e+02 -5.445078e+02  2.554913e+03 0.0022 0.0 9.0
22  1 1 2   0   0  2.435340e+03 -5.479181e+02 -6.758233e+02  2.586084e+03 0.0 0.0 9.0
#pdf 2 21 3.015897e-01 4.893329e-01 5000.0 2.472516e-01 7.656022e-02
</event>
<event>
4 7 1.0 5000.0 7.905138e-03 7.739137e-02
 2 -1 0 0 101   0  0.000000e+00  0.000000e+00  3.412889e+03  3.412889e+03 0.0 0.0 9.0
21 -1 0 0 103 101  0.000000e+00  0.000000e+00 -1.892656e+03  1.892656e+03 0.0 0.0 9.0
 2  1 1 2 103   0  1.311581e+03 -6.680075e+02  2.922739e+03  3.272443e+03 0.0022 0.0 9.0
22  1 1 2   0   0 -1.311581e+03  6.680075e+02 -1.402507e+03  2.033102e+03 0.0 0.0 9.0
#pdf 2 21 5.250598e-01 2.911778e-01 5000.0 5.748117e-02 2.601199e-01
</event>
<event>
4 7 1.0 5000.0 7.905138e-03 7.739137e-02
21 -1 0 0 103 101  0.000000e+00  0.000000e+00  2.526868e+03  2.526868e+03 0.0 0.0 9.0
 2 -1 0 0 101   0  0.000000e+00  0.000000e+00 -2.492160e+03  2.492160e+03 0.0 0.0 9.0
22  1 1 2   0   0  8.329985e+02 -9.932172e+02  2.166124e+03  2.524374e+03 0.0 0.0 9.0
 2  1 1 2 103   0 -8.329985e+02  9.932172e+02 -2.131416e+03  2.494655e+03 0.0022 0.0 9.0
#pdf 21 2 3.887489e-01 3.834092e-01 5000.0 1.207238e-02 1.291269e-02
</event>
<event>
4 7 1.0 5000.0 7.905138e-03 7.739137e-02
 2 -1 0 0 101   0  0.000000e+00  0.000000e+00  4.840911e+03  4.840911e+03 0.0 0.0 9.0
21 -1 0 0 103 101  0.000000e+00  0.000000e+00 -1.272556e+03  1.272556e+03 0.0 0.0 9.0
22  1 1 2   0   0  1.323607e+03 -1.198570e+03 -3.389062e+02  1.817515e+03 0.0 0.0 9.0
 2  1 1 2 103   0 -1.323607e+03  1.198570e+03  3.907262e+03  4.295952e+03 0.0022 0.0 9.0
#pdf 2 21 7.447556e-01 1.957778e-01 5000.0 4.619775e-03 3.878749e-01
</event>
<event>
4 7 1.0 5000.0 7.905138e-03 7.739137e-02
 2 -1 0 0 101   0  0.000000e+00  0.000000e+00  2.980331e+03  2.980331e+03 0.0 0.0 9.0
21 -1 0 0 103 101  0.000000e+00  0.000000e+00 -2.110766e+03  2.110766e+03 0.0 0.0 9.0
22  1 1 2   0   0 -1.288818e+03 -1.327350e+03  2.153517e+03  2.839111e+03 0.0 0.0 9.0
 2  1 1 2 103   0  1.288818e+03  1.327350e+03 -1.283952e+03  2.251987e+03 0.0022 0.0 9.0
#pdf 2 21 4.585125e-01 3.247332e-01 5000.0 9.625868e-02 2.197555e-01
</event>
<event>
4 7 1.0 5000.0 7.905138e-03 7.739137e-02
 2 -1 0 0 101   0  0.000000e+00  0.000000e+00  2.816216e+03  2.816216e+03 0.0 0.0 9.0
21 -1 0 0 103 101  0.000000e+00  0.000000e+00 -2.227117e+03  2.227117e+03 0.0 0.0 9.0
22  1 1 2   0   0  8.476039e+02  1.599160e+03 -1.448362e+03  2.318081e+03 0.0 0.0 9.0
 2  1 1 2 103   0 -8.476039e+02 -1.599160e+03  2.037462e+03  2.725252e+03 0.0022 0.0 9.0
#pdf 2 21 4.332640e-01 3.426333e-01 5000.0 1.147844e-01 1.996410e-01
</event>
<event>
4 7 1.0 5000.0 7.905138e-03 7.739137e-02
 2 -1 0 0 101   0  0.000000e+00  0.000000e+00  2.717304e+03  2.717304e+03 0.0 0.0 9.0
21 -1 0 0 103 101  0.000000e+00  0.000000e+00 -2.293871e+03  2.293871e+03 0.0 0.0 9.0
22  1 1 2   0   0  5.973759e+01  6.931466e+02  2.618056e+03  2.708918e+03 0.0 0.0 9.0
 2  1 1 2 103   0 -5.973759e+01 -6.931466e+02 -2.194623e+03  2.302258e+03 0.0022 0.0 9.0
#pdf 2 21 4.180468e-01 3.529033e-01 5000.0 1.270063e-01 1.885778e-01
</event>
<event>
4 7 1.0 5000.0 7.905138e-03 7.739137e-02
 2 -1 0 0 101   0  0.000000e+00  0.000000e+00  2.804890e+03  2.804890e+03 0.0 0.0 9.0
21 -1 0 0 103 101  0.000000e+00  0.000000e+00 -1.693262e+03  1.693262e+03 0.0 0.0 9.0
 2  1 1 2 103   0  8.411294e+02  1.262916e+03  2.170163e+03  2.648030e+03 0.0022 0.0 9.0
22  1 1 2   0   0 -8.411294e+02 -1.262916e+03 -1.058535e+03  1.850122e+03 0.0 0.0 9.0
#pdf 2 21 4.315216e-01 2.605019e-01 5000.0 1.161400e-01 2.996420e-01
</event>
<event>
4 7 1.0 5000.0 7.905138e-03 7.739137e-02
 2 -1 0 0 101   0  0.000000e+00  0.000000e+00  4.016342e+03  4.016342e+03 0.0 0.0 9.0
21 -1 0 0 103 101  0.000000e+00  0.000000e+00 -1.519712e+03  1.519712e+03 0.0 0.0 9.0
22  1 1 2   0   0  2.306407e+03 -3.184332e+02  3.225272e+02  2.350518e+03 0.0 0.0 9.0
 2  1 1 2 103   0 -2.306407e+03  3.184332e+02  2.174103e+03  3.185536e+03 0.0022 0.0 9.0
#pdf 2 21 6.178988e-01 2.338018e-01 5000.0 2.398422e-02 3.355175e-01
</event>
<event>
4 7 1.0 5000.0 7.905138e-03 7.739137e-02
 2 -1 0 0 101   0  0.000000e+00  0.000000e+00  2.254215e+03  2.254215e+03 0.0 0.0 9.0
21 -1 0 0 103 101  0.000000e+00  0.000000e+00 -2.810801e+03  2.810801e+03 0.0 0.0 9.0
 2  1 1 2 103   0 -5.229604e+02  2.337692e+03 -1.056217e+03  2.617993e+03 0.0022 0.0 9.0
22  1 1 2   0   0  5.229604e+02 -2.337692e+03  4.996303e+02  2.447023e+03 0.0 0.0 9.0
#pdf 2 21 3.468023e-01 4.324310e-01 5000.0 1.951066e-01 1.154312e-01
</event>
<event>
4 7 1.0 5000.0 7.905138e-03 7.739137e-02
 2 -1 0 0 101   0  0.000000e+00  0.000000e+00  3.716623e+03  3.716623e+03 0.0 0.0 9.0
21 -1 0 0 103 101  0.000000e+00  0.000000e+00 -1.501129e+03  1.501129e+03 0.0 0.0 9.0
 2  1 1 2 103   0  1.493548e+01 -1.033887e+03 -1.237874e+03  1.612909e+03 0.0022 0.0 9.0
22  1 1 2   0   0 -1.493548e+01  1.033887e+03  3.453367e+03  3.604843e+03 0.0 0.0 9.0
#pdf 2 21 5.717881e-01 2.309430e-01 5000.0 3.798266e-02 3.394364e-01
</event>
<event>
4 7 1.0 5000.0 7.905138e-03 7.739137e-02
21 -1 0 0 103 101  0.000000e+00  0.000000e+00  2.385916e+03  2.385916e+03 0.0 0.0 9.0
 2 -1 0 0 101   0  0.000000e+00  0.000000e+00 -2.151760e+03  2.151760e+03 0.0 0.0 9.0
 2  1 1 2 103   0 -1.517940e+03 -5.454453e+02  1.710510e+03  2.351063e+03 0.0022 0.0 9.0
22  1 1 2   0   0  1.517940e+03  5.454453e+02 -1.476354e+03  2.186613e+03 0.0 0.0 9.0
#pdf 21 2 3.670639e-01 3.310400e-01 5000.0 1.580781e-02 2.463048e-02
</event>
<event>
4 7 1.0 5000.0 7.905138e-03 7.739137e-02
21 -1 0 0 103 101  0.000000e+00  0.000000e+00  1.778126e+03  1.778126e+03 0.0 0.0 9.0
 2 -1 0 0 101   0  0.000000e+00  0.000000e+00 -3.562917e+03  3.562917e+03 0.0 0.0 9.0
 2  1 1 2 103   0  1.989370e+03 -3.380945e+02  7.038297e+02  2.137119e+03 0.0022 0.0 9.0
22  1 1 2   0   0 -1.989370e+03  3.380945e+02 -2.488620e+03  3.203925e+03 0.0 0.0 9.0
#pdf 21 2 2.735579e-01 5.481411e-01 5000.0 4.981852e-02 1.420674e-03
</event>
<event>
4 7 1.0 5000.0 7.905138e-03 7.739137e-02
 2 -1 0 0 101   0  0.000000e+00  0.000000e+00  1.834247e+03  1.834247e+03 0.0 0.0 9.0
21 -1 0 0 103 101  0.000000e+00  0.000000e+00 -2.706126e+03  2.706126e+03 0.0 0.0 9.0
22  1 1 2   0   0 -7.122685e+02  1.499760e+03 -1.949742e+03  2.560879e+03 0.0 0.0 9.0
 2  1 1 2 103   0  7.122685e+02 -1.499760e+03  1.077863e+03  1.979494e+03 0.0022 0.0 9.0
#pdf 2 21 2.821918e-01 4.163271e-01 5000.0 2.714790e-01 1.284408e-01
</event>
<event>
4 7 1.0 5000.0 7.905138e-03 7.739137e-02
 2 -1 0 0 101   0  0.000000e+00  0.000000e+00  1.915042e+03  1.915042e+03 0.0 0.0 9.0
21 -1 0 0 103 101  0.000000e+00  0.000000e+00 -3.265203e+03  3.265203e+03 0.0 0.0 9.0
 2  1 1 2 103   0 -1.151806e+03  5.437585e+02  1.553857e+03  2.009179e+03 0.0022 0.0 9.0
22  1 1 2   0   0  1.151806e+03 -5.437585e+02 -2.904019e+03  3.171065e+03 0.0 0.0 9.0
#pdf 2 21 2.946218e-01 5.023390e-01 5000.0 2.558234e-01 6.916328e-02
</event>
<event>
4 7 1.0 5000.0 7.905138e-03 7.739137e-02
21 -1 0 0 103 101  0.000000e+00  0.000000e+00  3.413099e+03  3.413099e+03 0.0 0.0 9.0
 2 -1 0 0 101   0  0.000000e+00  0.000000e+00 -1.928908e+03  1.928908e+03 0.0 0.0 9.0
22  1 1 2   0   0  1.873236e+03 -1.424728e+03  1.806087e+03  2.966617e+03 0.0 0.0 9.0
 2  1 1 2 103   0 -1.873236e+03  1.424728e+03 -3.218958e+02  2.375391e+03 0.0022 0.0 9.0
#pdf 21 2 5.250922e-01 2.967551e-01 5000.0 1.983663e-03 3.751077e-02
</event>
<event>
4 7 1.0 5000.0 7.905138e-03 7.739137e-02
21 -1 0 0 103 101  0.000000e+00  0.000000e+00  3.375415e+03  3.375415e+03 0.0 0.0 9.0
 2 -1 0 0 101   0  0.000000e+00  0.000000e+00 -1.378494e+03  1.378494e+03 0.0 0.0 9.0
 2  1 1 2 103   0 -1.251436e+03 -6.381142e+02  2.802304e+03  3.134675e+03 0.0022 0.0 9.0
22  1 1 2   0   0  1.251436e+03  6.381142e+02 -8.053827e+02  1.619235e+03 0.0 0.0 9.0
#pdf 21 2 5.192947e-01 2.120761e-01 5000.0 2.153016e-03 1.076436e-01
</event>
<event>
4 7 1.0 5000.0 7.905138e-03 7.739137e-02
 2 -1 0 0 101   0  0.000000e+00  0.000000e+00  4.073549e+03  4.073549e+03 0.0 0.0 9.0
21 -1 0 0 103 101  0.000000e+00  0.000000e+00 -1.600585e+03  1.600585e+03 0.0 0.0 9.0
22  1 1 2   0   0  2.094223e+03  7.139070e+02  2.652668e+03  3.454285e+03 0.0 0.0 9.0
 2  1 1 2 103   0 -2.094223e+03 -7.139070e+02 -1.797039e+02  2.219849e+03 0.0022 0.0 9.0
#pdf 2 21 6.266998e-01 2.462438e-01 5000.0 2.182014e-02 3.186806e-01
</event>
<event>
4 7 1.0 5000.0 7.905138e-03 7.739137e-02
 2 -1 0 0 101   0  0.000000e+00  0.000000e+00  2.852835e+03  2.852835e+03 0.0 0.0 9.0
21 -1 0 0 103 101  0.000000e+00  0.000000e+00 -2.177203e+03  2.177203e+03 0.0 0.0 9.0
22  1 1 2   0   0 -2.863249e+02  1.676749e+03  2.175937e+03  2.761915e+03 0.0 0.0 9.0
 2  1 1 2 103   0  2.863249e+02 -1.676749e+03 -1.500304e+03  2.268123e+03 0.0022 0.0 9.0
#pdf 2 21 4.388977e-01 3.349543e-01 5000.0 1.104690e-01 2.081370e-01
</event>
<event>
4 7 1.0 5000.0 7.905138e-03 7.739137e-02
 2 -1 0 0 101   0  0.000000e+00  0.000000e+00  1.855496e+03  1.855496e+03 0.0 0.0 9.0
21 -1 0 0 103 101  0.000000e+00  0.000000e+00 -3.330895e+03  3.330895e+03 0.0 0.0 9.0
22  1 1 2   0   0 -1.529164e+03 -3.745961e+02  1.269225e+03  2.022275e+03 0.0 0.0 9.0
 2  1 1 2 103   0  1.529164e+03  3.745961e+02 -2.744624e+03  3.164116e+03 0.0022 0.0 9.0
#pdf 2 21 2.854609e-01 5.124454e-01 5000.0 2.673272e-01 6.377504e-02
</event>
<event>
4 7 1.0 5000.0 7.905138e-03 7.739137e-02
21 -1 0 0 103 101  0.000000e+00  0.000000e+00  2.067007e+03  2.067007e+03 0.0 0.0 9.0
 2 -1 0 0 101   0  0.000000e+00  0.000000e+00 -2.871486e+03  2.871486e+03 0.0 0.0 9.0
 2  1 1 2 103   0  9.418341e+02  1.589130e+03 -2.012138e+03  2.731498e+03 0.0022 0.0 9.0
22  1 1 2   0   0 -9.418341e+02 -1.589130e+03  1.207659e+03  2.206995e+03 0.0 0.0 9.0
#pdf 21 2 3.180011e-01 4.417670e-01 5000.0 2.889244e-02 6.146919e-03
</event>
<event>
4 7 1.0 5000.0 7.905138e-03 7.739137e-02
21 -1 0 0 103 101  0.000000e+00  0.000000e+00  1.132502e+03  1.132502e+03 0.0 0.0 9.0
 2 -1 0 0 101   0  0.000000e+00  0.000000e+00 -5.515444e+03  5.515444e+03 0.0 0.0 9.0
 2  1 1 2 103   0  2.246544e+02 -1.150062e+03  7.445036e+02  1.388307e+03 0.0022 0.0 9.0
22  1 1 2   0   0 -2.246544e+02  1.150062e+03 -5.127445e+03  5.259639e+03 0.0 0.0 9.0
#pdf 21 2 1.742311e-01 8.485298e-01 5000.0 1.772569e-01 2.155153e-06
</event>
<event>
4 7 1.0 5000.0 7.905138e-03 7.739137e-02
 2 -1 0 0 101   0  0.000000e+00  0.000000e+00  2.687104e+03  2.687104e+03 0.0 0.0 9.0
21 -1 0 0 103 101  0.000000e+00  0.000000e+00 -2.609671e+03  2.609671e+03 0.0 0.0 9.0
 2  1 1 2 103   0  2.485477e+03 -6.559220e+02 -5.974527e+02  2.639087e+03 0.0022 0.0 9.0
22  1 1 2   0   0 -2.485477e+03  6.559220e+02  6.748855e+02  2.657687e+03 0.0 0.0 9.0
#pdf 2 21 4.134006e-01 4.014878e-01 5000.0 1.309056e-01 1.412482e-01
</event>
<event>
4 7 1.0 5000.0 7.905138e-03 7.739137e-02
 2 -1 0 0 101   0  0.000000e+00  0.000000e+00  2.072376e+03  2.072376e+03 0.0 0.0 9.0
21 -1 0 0 103 101  0.000000e+00  0.000000e+00 -2.986726e+03  2.986726e+03 0.0 0.0 9.0
 2  1 1 2 103   0 -1.379947e+03 -1.668308e+03 -1.703303e+03  2.754768e+03 0.0022 0.0 9.0
22  1 1 2   0   0  1.379947e+03  1.668308e+03  7.889538e+02  2.304334e+03 0.0 0.0 9.0
#pdf 2 21 3.188271e-01 4.594963e-01 5000.0 2.266189e-01 9.557987e-02
</event>
<event>
4 7 1.0 5000.0 7.905138e-03 7.739137e-02
21 -1 0 0 103 101  0.000000e+00  0.000000e+00  3.272211e+03  3.272211e+03 0.0 0.0 9.0
 2 -1 0 0 101   0  0.000000e+00  0.000000e+00 -1.862666e+03  1.862666e+03 0.0 0.0 9.0
 2  1 1 2 103   0 -9.031867e+02  2.294129e+03  8.373835e+02  2.603841e+03 0.0022 0.0 9.0
22  1 1 2   0   0  9.031867e+02 -2.294129e+03  5.721620e+02  2.531036e+03 0.0 0.0 9.0
#pdf 21 2 5.034171e-01 2.865640e-01 5000.0 2.688035e-03 4.246971e-02
</event>
<event>
4 7 1.0 5000.0 7.905138e-03 7.739137e-02
 2 -1 0 0 101   0  0.000000e+00  0.000000e+00  2.150637e+03  2.150637e+03 0.0 0.0 9.0
21 -1 0 0 103 101  0.000000e+00  0.000000e+00 -2.875077e+03  2.875077e+03 0.0 0.0 9.0
 2  1 1 2 103   0 -1.256887e+03 -7.613493e+02  1.664899e+03  2.220654e+03 0.0022 0.0 9.0
22  1 1 2   0   0  1.256887e+03  7.613493e+02 -2.389339e+03  2.805060e+03 0.0 0.0 9.0
#pdf 2 21 3.308672e-01 4.423196e-01 5000.0 2.127399e-01 1.078926e-01
</event>
<event>
4 7 1.0 5000.0 7.905138e-03 7.739137e-02
21 -1 0 0 103 101  0.000000e+00  0.000000e+00  2.085739e+03  2.085739e+03 0.0 0.0 9.0
 2 -1 0 0 101   0  0.000000e+00  0.000000e+00 -2.888552e+03  2.888552e+03 0.0 0.0 9.0
22  1 1 2   0   0 -1.328752e+03 -1.346277e+03  1.183573e+03  2.231342e+03 0.0 0.0 9.0
 2  1 1 2 103   0  1.328752e+03  1.346277e+03 -1.986386e+03  2.742949e+03 0.0022 0.0 9.0
#pdf 21 2 3.208830e-01 4.443926e-01 5000.0 2.788963e-02 5.936193e-03
</event>
<event>
4 7 1.0 5000.0 7.905138e-03 7.739137e-02
21 -1 0 0 103 101  0.000000e+00  0.000000e+00  1.823767e+03  1.823767e+03 0.0 0.0 9.0
 2 -1 0 0 101   0  0.000000e+00  0.000000e+00 -3.258070e+03  3.258070e+03 0.0 0.0 9.0
22  1 1 2   0   0  8.252311e+02 -6.135465e+02 -3.020908e+03  3.191133e+03 0.0 0.0 9.0
 2  1 1 2 103   0 -8.252311e+02  6.135465e+02  1.586604e+03  1.890703e+03 0.0022 0.0 9.0
#pdf 21 2 2.805795e-01 5.012415e-01 5000.0 4.569728e-02 2.770275e-03
</event>
<event>
4 7 1.0 5000.0 7.905138e-03 7.739137e-02
 2 -1 0 0 101   0  0.000000e+00  0.000000e+00  2.080346e+03  2.080346e+03 0.0 0.0 9.0
21 -1 0 0 103 101  0.000000e+00  0.000000e+00 -3.030063e+03  3.030063e+03 0.0 0.0 9.0
22  1 1 2   0   0 -2.304260e+03 -6.719222e+02  2.747369e+02  2.415900e+03 0.0 0.0 9.0
 2  1 1 2 103   0  2.304260e+03  6.719222e+02 -1.224455e+03  2.694509e+03 0.0022 0.0 9.0
#pdf 2 21 3.200532e-01 4.661636e-01 5000.0 2.251861e-01 9.107979e-02
</event>
<event>
4 7 1.0 5000.0 7.905138e-03 7.739137e-02
 2 -1 0 0 101   0  0.000000e+00  0.000000e+00  2.454731e+03  2.454731e+03 0.0 0.0 9.0
21 -1 0 0 103 101  0.000000e+00  0.000000e+00 -2.582520e+03  2.582520e+03 0.0 0.0 9.0
 2  1 1 2 103   0  2.657707e+02 -1.892605e+03  1.575780e+03  2.477029e+03 0.0022 0.0 9.0
22  1 1 2   0   0 -2.657707e+02  1.892605e+03 -1.703569e+03  2.560222e+03 0.0 0.0 9.0
#pdf 2 21 3.776509e-01 3.973107e-01 5000.0 1.634355e-01 1.449964e-01
</event>
<event>
4 7 1.0 5000.0 7.905138e-03 7.739137e-02
 2 -1 0 0 101   0  0.000000e+00  0.000000e+00  2.239498e+03  2.239498e+03 0.0 0.0 9.0
21 -1 0 0 103 101  0.000000e+00  0.000000e+00 -2.538965e+03  2.538965e+03 0.0 0.0 9.0
 2  1 1 2 103   0 -2.016791e+03 -7.437552e+02 -1.183944e+03  2.454046e+03 0.0022 0.0 9.0
22  1 1 2   0   0  2.016791e+03  7.437552e+02  8.844764e+02  2.324417e+03 0.0 0.0 9.0
#pdf 2 21 3.445381e-01 3.906100e-01 5000.0 1.975621e-01 1.511308e-01
</event>
<event>
4 7 1.0 5000.0 7.905138e-03 7.739137e-02
21 -1 0 0 103 101  0.000000e+00  0.000000e+00  3.376758e+03  3.376758e+03 0.0 0.0 9.0
 2 -1 0 0 101   0  0.000000e+00  0.000000e+00 -1.854818e+03  1.854818e+03 0.0 0.0 9.0
22  1 1 2   0   0 -1.671711e+03  1.760784e+03  1.395276e+03  2.800317e+03 0.0 0.0 9.0
 2  1 1 2 103   0  1.671711e+03 -1.760784e+03  1.266641e+02  2.431259e+03 0.0022 0.0 9.0
#pdf 21 2 5.195013e-01 2.853566e-01 5000.0 2.146730e-03 4.309694e-02
</event>
<event>
4 7 1.0 5000.0 7.905138e-03 7.739137e-02
21 -1 0 0 103 101  0.000000e+00  0.000000e+00  2.291905e+03  2.291905e+03 0.0 0.0 9.0
 2 -1 0 0 101   0  0.000000e+00  0.000000e+00 -2.732039e+03  2.732039e+03 0.0 0.0 9.0
 2  1 1 2 103   0  1.492879e+03  1.975837e+03 -5.805515e+02  2.543553e+03 0.0022 0.0 9.0
22  1 1 2   0   0 -1.492879e+03 -1.975837e+03  1.404174e+02  2.480391e+03 0.0 0.0 9.0
#pdf 21 2 3.526008e-01 4.203137e-01 5000.0 1.890165e-02 8.097827e-03
</event>
<event>
4 7 1.0 5000.0 7.905138e-03 7.739137e-02
21 -1 0 0 103 101  0.000000e+00  0.000000e+00  3.660525e+03  3.660525e+03 0.0 0.0 9.0
 2 -1 0 0 101   0  0.000000e+00  0.000000e+00 -1.699503e+03  1.699503e+03 0.0 0.0 9.0
 2  1 1 2 103   0  2.077690e+01 -2.024068e+03 -5.853744e+02  2.107118e+03 0.0022 0.0 9.0
22  1 1 2   0   0 -2.077690e+01  2.024068e+03  2.546397e+03  3.252910e+03 0.0 0.0 9.0
#pdf 21 2 5.631578e-01 2.614620e-01 5000.0 1.137968e-03 5.784099e-02
</event>
<event>
4 7 1.0 5000.0 7.905138e-03 7.739137e-02
 2 -1 0 0 101   0  0.000000e+00  0.000000e+00  4.424329e+03  4.424329e+03 0.0 0.0 9.0
21 -1 0 0 103 101  0.000000e+00  0.000000e+00 -1.055539e+03  1.055539e+03 0.0 0.0 9.0
 2  1 1 2 103   0  5.862473e+02 -2.008417e+03  9.985322e+02  2.318295e+03 0.0022 0.0 9.0
22  1 1 2   0   0 -5.862473e+02  2.008417e+03  2.370258e+03  3.161573e+03 0.0 0.0 9.0
#pdf 2 21 6.806660e-01 1.623907e-01 5000.0 1.155152e-02 4.333912e-01
</event>
<event>
4 7 1.0 5000.0 7.905138e-03 7.739137e-02
21 -1 0 0 103 101  0.000000e+00  0.000000e+00  4.125463e+03  4.125463e+03 0.0 0.0 9.0
 2 -1 0 0 101   0  0.000000e+00  0.000000e+00 -1.480260e+03  1.480260e+03 0.0 0.0 9.0
 2  1 1 2 103   0 -2.133071e+03  6.572076e+02  2.525538e+03  3.370498e+03 0.0022 0.0 9.0
22  1 1 2   0   0  2.133071e+03 -6.572076e+02  1.196650e+02  2.235225e+03 0.0 0.0 9.0
#pdf 21 2 6.346866e-01 2.277323e-01 5000.0 3.615747e-04 8.812428e-02
</event>
<event>
4 7 1.0 5000.0 7.905138e-03 7.739137e-02
 2 -1 0 0 101   0  0.000000e+00  0.000000e+00  2.494345e+03  2.494345e+03 0.0 0.0 9.0
21 -1 0 0 103 101  0.000000e+00  0.000000e+00 -2.528960e+03  2.528960e+03 0.0 0.0 9.0
 2  1 1 2 103   0  1.878373e+03  1.005781e+02 -1.681588e+03  2.523121e+03 0.0022 0.0 9.0
22  1 1 2   0   0 -1.878373e+03 -1.005781e+02  1.646974e+03  2.500184e+03 0.0 0.0 9.0
#pdf 2 21 3.837454e-01 3.890708e-01 5000.0 1.575752e-01 1.525607e-01
</event>
<event>
4 7 1.0 5000.0 7.905138e-03 7.739137e-02
21 -1 0 0 103 101  0.000000e+00  0.000000e+00  4.083411e+03  4.083411e+03 0.0 0.0 9.0
 2 -1 0 0 101   0  0.000000e+00  0.000000e+00 -1.203094e+03  1.203094e+03 0.0 0.0 9.0
22  1 1 2   0   0  2.095054e+02 -7.997092e+02  3.892673e+03  3.979488e+03 0.0 0.0 9.0
 2  1 1 2 103   0 -2.095054e+02  7.997092e+02 -1.012356e+03  1.307017e+03 0.0022 0.0 9.0
#pdf 21 2 6.282170e-01 1.850915e-01 5000.0 4.036565e-04 1.532830e-01
</event>
<event>
4 7 1.0 5000.0 7.905138e-03 7.739137e-02
21 -1 0 0 103 101  0.000000e+00  0.000000e+00  1.725728e+03  1.725728e+03 0.0 0.0 9.0
 2 -1 0 0 101   0  0.000000e+00  0.000000e+00 -3.540949e+03  3.540949e+03 0.0 0.0 9.0
 2  1 1 2 103   0 -2.119376e+03  2.721940e+02 -2.231668e+03  3.089691e+03 0.0022 0.0 9.0
22  1 1 2   0   0  2.119376e+03 -2.721940e+02  4.164469e+02  2.176987e+03 0.0 0.0 9.0
#pdf 21 2 2.654967e-01 5.447615e-01 5000.0 5.501645e-02 1.493260e-03
</event>
<event>
4 7 1.0 5000.0 7.905138e-03 7.739137e-02
21 -1 0 0 103 101  0.000000e+00  0.000000e+00  2.034389e+03  2.034389e+03 0.0 0.0 9.0
 2 -1 0 0 101   0  0.000000e+00  0.000000e+00 -2.798907e+03  2.798907e+03 0.0 0.0 9.0
22  1 1 2   0   0 -1.540560e+03 -7.855573e+02  1.282981e+03  2.153245e+03 0.0 0.0 9.0
 2  1 1 2 103   0  1.540560e+03  7.855573e+02 -2.047499e+03  2.680052e+03 0.0022 0.0 9.0
#pdf 21 2 3.129830e-01 4.306011e-01 5000.0 3.073965e-02 7.096231e-03
</event>
<event>
4 7 1.0 5000.0 7.905138e-03 7.739137e-02
 2 -1 0 0 101   0  0.000000e+00  0.000000e+00  1.884413e+03  1.884413e+03 0.0 0.0 9.0
21 -1 0 0 103 101  0.000000e+00  0.000000e+00 -3.294773e+03  3.294773e+03 0.0 0.0 9.0
22  1 1 2   0   0 -1.219523e+02  1.910219e+03 -2.363111e+03  3.041069e+03 0.0 0.0 9.0
 2  1 1 2 103   0  1.219523e+02 -1.910219e+03  9.527509e+02  2.138116e+03 0.0022 0.0 9.0
#pdf 2 21 2.899096e-01 5.068882e-01 5000.0 2.617114e-01 6.669969e-02
</event>
<event>
4 7 1.0 5000.0 7.905138e-03 7.739137e-02
21 -1 0 0 103 101  0.000000e+00  0.000000e+00  2.231102e+03  2.231102e+03 0.0 0.0 9.0
 2 -1 0 0 101   0  0.000000e+00  0.000000e+00 -2.840521e+03  2.840521e+03 0.0 0.0 9.0
22  1 1 2   0   0  5.224206e+02 -2.410986e+01 -2.785199e+03  2.833873e+03 0.0 0.0 9.0
 2  1 1 2 103   0 -5.224206e+02  2.410986e+01  2.175780e+03  2.237749e+03 0.0022 0.0 9.0
#pdf 21 2 3.432464e-01 4.370032e-01 5000.0 2.120401e-02 6.538719e-03
</event>
<event>
4 7 1.0 5000.0 7.905138e-03 7.739137e-02
 2 -1 0 0 101   0  0.000000e+00  0.000000e+00  1.980471e+03  1.980471e+03 0.0 0.0 9.0
21 -1 0 0 103 101  0.000000e+00  0.000000e+00 -2.950941e+03  2.950941e+03 0.0 0.0 9.0
 2  1 1 2 103   0 -1.564234e+03 -1.106168e+03 -1.989030e+03  2.761643e+03 0.0022 0.0 9.0
22  1 1 2   0   0  1.564234e+03  1.106168e+03  1.018560e+03  2.169769e+03 0.0 0.0 9.0
#pdf 2 21 3.046878e-01 4.539910e-01 5000.0 2.434707e-01 9.942154e-02
</event>
<event>
4 7 1.0 5000.0 7.905138e-03 7.739137e-02
21 -1 0 0 103 101  0.000000e+00  0.000000e+00  2.578785e+03  2.578785e+03 0.0 0.0 9.0
 2 -1 0 0 101   0  0.000000e+00  0.000000e+00 -2.336649e+03  2.336649e+03 0.0 0.0 9.0
 2  1 1 2 103   0  1.680763e+03 -1.781175e+03 -4.695931e+01  2.449440e+03 0.0022 0.0 9.0
22  1 1 2   0   0 -1.680763e+03  1.781175e+03  2.890953e+02  2.465994e+03 0.0 0.0 9.0
#pdf 21 2 3.967362e-01 3.594845e-01 5000.0 1.091863e-02 1.735770e-02
</event>
<event>
4 7 1.0 5000.0 7.905138e-03 7.739137e-02
 2 -1 0 0 101   0  0.000000e+00  0.000000e+00  2.944458e+03  2.944458e+03 0.0 0.0 9.0
21 -1 0 0 103 101  0.000000e+00  0.000000e+00 -2.118622e+03  2.118622e+03 0.0 0.0 9.0
22  1 1 2   0   0 -5.458239e+02 -1.031911e+01  2.883246e+03  2.934474e+03 0.0 0.0 9.0
 2  1 1 2 103   0  5.458239e+02  1.031911e+01 -2.057410e+03  2.128607e+03 0.0022 0.0 9.0
#pdf 2 21 4.529935e-01 3.259419e-01 5000.0 1.001276e-01 2.183635e-01
</event>
<event>
4 7 1.0 5000.0 7.905138e-03 7.739137e-02
21 -1 0 0 103 101  0.000000e+00  0.000000e+00  2.297533e+03  2.297533e+03 0.0 0.0 9.0
 2 -1 0 0 101   0  0.000000e+00  0.000000e+00 -2.714698e+03  2.714698e+03 0.0 0.0 9.0
22  1 1 2   0   0  9.160313e+02 -2.154077e+03  6.650505e+02  2.433404e+03 0.0 0.0 9.0
 2  1 1 2 103   0 -9.160313e+02  2.154077e+03 -1.082216e+03  2.578828e+03 0.0022 0.0 9.0
#pdf 21 2 3.534666e-01 4.176459e-01 5000.0 1.869902e-02 8.377861e-03
</event>
<event>
4 7 1.0 5000.0 7.905138e-03 7.739137e-02
21 -1 0 0 103 101  0.000000e+00  0.000000e+00  2.001853e+03  2.001853e+03 0.0 0.0 9.0
 2 -1 0 0 101   0  0.000000e+00  0.000000e+00 -3.029092e+03  3.029092e+03 0.0 0.0 9.0
22  1 1 2   0   0  1.569760e+03  1.179699e+03  1.004279e+03  2.205541e+03 0.0 0.0 9.0
 2  1 1 2 103   0 -1.569760e+03 -1.179699e+03 -2.031519e+03  2.825403e+03 0.0022 0.0 9.0
#pdf 21 2 3.079773e-01 4.660142e-01 5000.0 3.270077e-02 4.465128e-03
</event>
<event>
4 7 1.0 5000.0 7.905138e-03 7.739137e-02
 2 -1 0 0 101   0  0.000000e+00  0.000000e+00  3.121948e+03  3.121948e+03 0.0 0.0 9.0
21 -1 0 0 103 101  0.000000e+00  0.000000e+00 -2.027065e+03  2.027065e+03 0.0 0.0 9.0
22  1 1 2   0   0 -7.624495e+02  9.971451e+02 -1.683665e+03  2.100085e+03 0.0 0.0 9.0
 2  1 1 2 103   0  7.624495e+02 -9.971451e+02  2.778549e+03  3.048928e+03 0.0022 0.0 9.0
#pdf 2 21 4.802997e-01 3.118561e-01 5000.0 8.201190e-02 2.348475e-01
</event>
<event>
4 7 1.0 5000.0 7.905138e-03 7.739137e-02
21 -1 0 0 103 101  0.000000e+00  0.000000e+00  4.511442e+03  4.511442e+03 0.0 0.0 9.0
 2 -1 0 0 101   0  0.000000e+00  0.000000e+00 -1.429678e+03  1.429678e+03 0.0 0.0 9.0
 2  1 1 2 103   0  4.228529e+02 -1.221438e+03 -1.016165e+03  1.644174e+03 0.0022 0.0 9.0
22  1 1 2   0   0 -4.228529e+02  1.221438e+03  4.097930e+03  4.296946e+03 0.0 0.0 9.0
#pdf 21 2 6.940680e-01 2.199504e-01 5000.0 1.218517e-04 9.733842e-02
</event>
<event>
4 7 1.0 5000.0 7.905138e-03 7.739137e-02
21 -1 0 0 103 101  0.000000e+00  0.000000e+00  4.449910e+03  4.449910e+03 0.0 0.0 9.0
 2 -1 0 0 101   0  0.000000e+00  0.000000e+00 -1.443278e+03  1.443278e+03 0.0 0.0 9.0
22  1 1 2   0   0  1.966131e+03  1.128709e+03  2.820207e+03  3.618456e+03 0.0 0.0 9.0
 2  1 1 2 103   0 -1.966131e+03 -1.128709e+03  1.864245e+02  2.274733e+03 0.0022 0.0 9.0
#pdf 21 2 6.846015e-01 2.220428e-01 5000.0 1.464506e-04 9.476392e-02
</event>
<event>
4 7 1.0 5000.0 7.905138e-03 7.739137e-02
21 -1 0 0 103 101  0.000000e+00  0.000000e+00  1.927428e+03  1.927428e+03 0.0 0.0 9.0
 2 -1 0 0 101   0  0.000000e+00  0.000000e+00 -2.918152e+03  2.918152e+03 0.0 0.0 9.0
 2  1 1 2 103   0  3.932614e+02  1.623224e+03  1.224726e+03  2.071102e+03 0.0022 0.0 9.0
22  1 1 2   0   0 -3.932614e+02 -1.623224e+03 -2.215450e+03  2.774478e+03 0.0 0.0 9.0
#pdf 21 2 2.965274e-01 4.489465e-01 5000.0 3.761697e-02 5.592259e-03
</event>
<event>
4 7 1.0 5000.0 7.905138e-03 7.739137e-02
21 -1 0 0 103 101  0.000000e+00  0.000000e+00  1.752026e+03  1.752026e+03 0.0 0.0 9.0
 2 -1 0 0 101   0  0.000000e+00  0.000000e+00 -3.451508e+03  3.451508e+03 0.0 0.0 9.0
22  1 1 2   0   0 -2.641226e+02 -2.263955e+03 -1.826264e+03  2.920701e+03 0.0 0.0 9.0
 2  1 1 2 103   0  2.641226e+02  2.263955e+03  1.267823e+02  2.282833e+03 0.0022 0.0 9.0
#pdf 21 2 2.695425e-01 5.310012e-01 5000.0 5.233932e-02 1.823728e-03
</event>
<event>
4 7 1.0 5000.0 7.905138e-03 7.739137e-02
 2 -1 0 0 101   0  0.000000e+00  0.000000e+00  1.490124e+03  1.490124e+03 0.0 0.0 9.0
21 -1 0 0 103 101  0.000000e+00  0.000000e+00 -4.191908e+03  4.191908e+03 0.0 0.0 9.0
22  1 1 2   0   0  3.876393e+02 -7.716756e+02 -4.016929e+03  4.108706e+03 0.0 0.0 9.0
 2  1 1 2 103   0 -3.876393e+02  7.716756e+02  1.315146e+03  1.573326e+03 0.0022 0.0 9.0
#pdf 2 21 2.292499e-01 6.449089e-01 5000.0 3.417572e-01 1.780659e-02
</event>
<event>
4 7 1.0 5000.0 7.905138e-03 7.739137e-02
 2 -1 0 0 101   0  0.000000e+00  0.000000e+00  4.552950e+03  4.552950e+03 0.0 0.0 9.0
21 -1 0 0 103 101  0.000000e+00  0.000000e+00 -1.363781e+03  1.363781e+03 0.0 0.0 9.0
 2  1 1 2 103   0 -8.744828e+02  1.307888e+03  3.888706e+03  4.194917e+03 0.0022 0.0 9.0
22  1 1 2   0   0  8.744828e+02 -1.307888e+03 -6.995379e+02  1.721814e+03 0.0 0.0 9.0
#pdf 2 21 7.004538e-01 2.098125e-01 5000.0 8.895494e-03 3.684695e-01
</event>
<event>
4 7 1.0 5000.0 7.905138e-03 7.739137e-02
21 -1 0 0 103 101  0.000000e+00  0.000000e+00  3.733291e+03  3.733291e+03 0.0 0.0 9.0
 2 -1 0 0 101   0  0.000000e+00  0.000000e+00 -1.281250e+03  1.281250e+03 0.0 0.0 9.0
22  1 1 2   0   0 -2.002859e+02  8.859180e+02 -1.054812e+03  1.391975e+03 0.0 0.0 9.0
 2  1 1 2 103   0  2.002859e+02 -8.859180e+02  3.506854e+03  3.622566e+03 0.0022 0.0 9.0
#pdf 21 2 5.743525e-01 1.971154e-01 5000.0 9.585188e-04 1.306188e-01
</event>
<event>
4 7 1.0 5000.0 7.905138e-03 7.739137e-02
 2 -1 0 0 101   0  0.000000e+00  0.000000e+00  4.001066e+03  4.001066e+03 0.0 0.0 9.0
21 -1 0 0 103 101  0.000000e+00  0.000000e+00 -1.653287e+03  1.653287e+03 0.0 0.0 9.0
22  1 1 2   0   0 -2.898734e+02 -2.238178e+03 -1.819833e+02  2.264196e+03 0.0 0.0 9.0
 2  1 1 2 103   0  2.898734e+02  2.238178e+03  2.529762e+03  3.390157e+03 0.0022 0.0 9.0
#pdf 2 21 6.155486e-01 2.543519e-01 5000.0 2.458765e-02 3.077805e-01
</event>
<event>
4 7 1.0 5000.0 7.905138e-03 7.739137e-02
21 -1 0 0 103 101  0.000000e+00  0.000000e+00  4.120704e+03  4.120704e+03 0.0 0.0 9.0
 2 -1 0 0 101   0  0.000000e+00  0.000000e+00 -1.559804e+03  1.559804e+03 0.0 0.0 9.0
22  1 1 2   0   0 -6.817469e+02 -1.328257e+03 -1.015068e+03  1.805383e+03 0.0 0.0 9.0
 2  1 1 2 103   0  6.817469e+02  1.328257e+03  3.575968e+03  3.875125e+03 0.0022 0.0 9.0
#pdf 21 2 6.339544e-01 2.399699e-01 5000.0 3.661199e-04 7.564569e-02
</event>
<event>
4 7 1.0 5000.0 7.905138e-03 7.739137e-02
 2 -1 0 0 101   0  0.000000e+00  0.000000e+00  4.987704e+03  4.987704e+03 0.0 0.0 9.0
21 -1 0 0 103 101  0.000000e+00  0.000000e+00 -1.280904e+03  1.280904e+03 0.0 0.0 9.0
22  1 1 2   0   0 -5.015322e+02  1.881505e+03  3.851803e+03  4.316015e+03 0.0 0.0 9.0
 2  1 1 2 103   0  5.015322e+02 -1.881505e+03 -1.450028e+02  1.952594e+03 0.0022 0.0 9.0
#pdf 2 21 7.673391e-01 1.970622e-01 5000.0 3.159777e-03 3.860948e-01
</event>
<event>
4 7 1.0 5000.0 7.905138e-03 7.739137e-02
21 -1 0 0 103 101  0.000000e+00  0.000000e+00  1.906519e+03  1.906519e+03 0.0 0.0 9.0
 2 -1 0 0 101   0  0.000000e+00  0.000000e+00 -3.239029e+03  3.239029e+03 0.0 0.0 9.0
 2  1 1 2 103   0  2.098361e+03  1.160542e+03  8.924423e+00  2.397927e+03 0.0022 0.0 9.0
22  1 1 2   0   0 -2.098361e+03 -1.160542e+03 -1.341434e+03  2.747621e+03 0.0 0.0 9.0
#pdf 21 2 2.933106e-01 4.983121e-01 5000.0 3.913407e-02 2.884983e-03
</event>
<event>
4 7 1.0 5000.0 7.905138e-03 7.739137e-02
21 -1 0 0 103 101  0.000000e+00  0.000000e+00  3.614644e+03  3.614644e+03 0.0 0.0 9.0
 2 -1 0 0 101   0  0.000000e+00  0.000000e+00 -1.554695e+03  1.554695e+03 0.0 0.0 9.0
 2  1 1 2 103   0  1.056408e+03 -3.408710e+02  3.313770e+03  3.494748e+03 0.0022 0.0 9.0
22  1 1 2   0   0 -1.056408e+03  3.408710e+02 -1.253820e+03  1.674591e+03 0.0 0.0 9.0
#pdf 21 2 5.560991e-01 2.391838e-01 5000.0 1.263958e-03 7.639309e-02
</event>
<event>
4 7 1.0 5000.0 7.905138e-03 7.739137e-02
 2 -1 0 0 101   0  0.000000e+00  0.000000e+00  3.095102e+03  3.095102e+03 0.0 0.0 9.0
21 -1 0 0 103 101  0.000000e+00  0.000000e+00 -1.814809e+03  1.814809e+03 0.0 0.0 9.0
22  1 1 2   0   0  7.712544e+02 -2.840627e+02  2.942753e+03  3.055376e+03 0.0 0.0 9.0
 2  1 1 2 103   0 -7.712544e+02  2.840627e+02 -1.662460e+03  1.854535e+03 0.0022 0.0 9.0
#pdf 2 21 4.761695e-01 2.792013e-01 5000.0 8.459397e-02 2.752947e-01
</event>
<event>
4 7 1.0 5000.0 7.905138e-03 7.739137e-02
 2 -1 0 0 101   0  0.000000e+00  0.000000e+00  3.670822e+03  3.670822e+03 0.0 0.0 9.0
21 -1 0 0 103 101  0.000000e+00  0.000000e+00 -1.528452e+03  1.528452e+03 0.0 0.0 9.0
22  1 1 2   0   0 -8.124717e+02  2.190301e+03  1.500683e+03  2.776613e+03 0.0 0.0 9.0
 2  1 1 2 103   0  8.124717e+02 -2.190301e+03  6.416869e+02  2.422662e+03 0.0022 0.0 9.0
#pdf 2 21 5.647419e-01 2.351465e-01 5000.0 4.056774e-02 3.336769e-01
</event>
<event>
4 7 1.0 5000.0 7.905138e-03 7.739137e-02
21 -1 0 0 103 101  0.000000e+00  0.000000e+00  4.256019e+03  4.256019e+03 0.0 0.0 9.0
 2 -1 0 0 101   0  0.000000e+00  0.000000e+00 -1.464333e+03  1.464333e+03 0.0 0.0 9.0
 2  1 1 2 103   0  1.231364e+02  9.527464e+02  4.035767e+03  4.148530e+03 0.0022 0.0 9.0
22  1 1 2   0   0 -1.231364e+02 -9.527464e+02 -1.244080e+03  1.571822e+03 0.0 0.0 9.0
#pdf 21 2 6.547722e-01 2.252820e-01 5000.0 2.547298e-04 9.091825e-02
</event>
<event>
4 7 1.0 5000.0 7.905138e-03 7.739137e-02
 2 -1 0 0 101   0  0.000000e+00  0.000000e+00  2.452211e+03  2.452211e+03 0.0 0.0 9.0
21 -1 0 0 103 101  0.000000e+00  0.000000e+00 -2.548706e+03  2.548706e+03 0.0 0.0 9.0
22  1 1 2   0   0  2.455638e+03  3.868484e+02 -3.131646e+02  2.505570e+03 0.0 0.0 9.0
 2  1 1 2 103   0 -2.455638e+03 -3.868484e+02  2.166696e+02  2.495347e+03 0.0022 0.0 9.0
#pdf 2 21 3.772633e-01 3.921086e-01 5000.0 1.638123e-01 1.497465e-01
</event>
<event>
4 7 1.0 5000.0 7.905138e-03 7.739137e-02
 2 -1 0 0 101   0  0.000000e+00  0.000000e+00  2.062346e+03  2.062346e+03 0.0 0.0 9.0
21 -1 0 0 103 101  0.000000e+00  0.000000e+00 -2.959881e+03  2.959881e+03 0.0 0.0 9.0
22  1 1 2   0   0 -2.172178e+03  5.522505e+02  6.079354e+02  2.322267e+03 0.0 0.0 9.0
 2  1 1 2 103   0  2.172178e+03 -5.522505e+02 -1.505470e+03  2.699959e+03 0.0022 0.0 9.0
#pdf 2 21 3.172839e-01 4.553662e-01 5000.0 2.284278e-01 9.845265e-02
</event>
<event>
4 7 1.0 5000.0 7.905138e-03 7.739137e-02
21 -1 0 0 103 101  0.000000e+00  0.000000e+00  2.158149e+03  2.158149e+03 0.0 0.0 9.0
 2 -1 0 0 101   0  0.000000e+00  0.000000e+00 -2.998236e+03  2.998236e+03 0.0 0.0 9.0
 2  1 1 2 103   0  1.242017e+03 -1.109800e+03 -2.368675e+03  2.895667e+03 0.0022 0.0 9.0
22  1 1 2   0   0 -1.242017e+03  1.109800e+03  1.528588e+03  2.260718e+03 0.0 0.0 9.0
#pdf 21 2 3.320229e-01 4.612670e-01 5000.0 2.433549e-02 4.754649e-03
</event>
<event>
4 7 1.0 5000.0 7.905138e-03 7.739137e-02
 2 -1 0 0 101   0  0.000000e+00  0.000000e+00  3.091371e+03  3.091371e+03 0.0 0.0 9.0
21 -1 0 0 103 101  0.000000e+00  0.000000e+00 -2.054008e+03  2.054008e+03 0.0 0.0 9.0
22  1 1 2   0   0  7.833115e+02 -1.278539e+03  2.586346e+03  2.989553e+03 0.0 0.0 9.0
 2  1 1 2 103   0 -7.833115e+02  1.278539e+03 -1.548983e+03  2.155826e+03 0.0022 0.0 9.0
#pdf 2 21 4.755955e-01 3.160012e-01 5000.0 8.495735e-02 2.299367e-01
</event>
<event>
4 7 1.0 5000.0 7.905138e-03 7.739137e-02
21 -1 0 0 103 101  0.000000e+00  0.000000e+00  5.201058e+03  5.201058e+03 0.0 0.0 9.0
 2 -1 0 0 101   0  0.000000e+00  0.000000e+00 -1.208050e+03  1.208050e+03 0.0 0.0 9.0
22  1 1 2   0   0 -1.550621e+03  1.630827e+02  4.505668e+03  4.767816e+03 0.0 0.0 9.0
 2  1 1 2 103   0  1.550621e+03 -1.630827e+02 -5.126595e+02  1.641293e+03 0.0022 0.0 9.0
#pdf 21 2 8.001628e-01 1.858539e-01 5000.0 1.019605e-05 1.517216e-01
</event>
<event>
4 7 1.0 5000.0 7.905138e-03 7.739137e-02
21 -1 0 0 103 101  0.000000e+00  0.000000e+00  2.754604e+03  2.754604e+03 0.0 0.0 9.0
 2 -1 0 0 101   0  0.000000e+00  0.000000e+00 -2.260142e+03  2.260142e+03 0.0 0.0 9.0
 2  1 1 2 103   0  9.957728e+02  2.218375e+03 -3.150138e+02  2.451935e+03 0.0022 0.0 9.0
22  1 1 2   0   0 -9.957728e+02 -2.218375e+03  8.094754e+02  2.562811e+03 0.0 0.0 9.0
#pdf 21 2 4.237852e-01 3.477142e-01 5000.0 7.746133e-03 2.007599e-02
</event>
<event>
4 7 1.0 5000.0 7.905138e-03 7.739137e-02
 2 -1 0 0 101   0  0.000000e+00  0.000000e+00  1.953729e+03  1.953729e+03 0.0 0.0 9.0
21 -1 0 0 103 101  0.000000e+00  0.000000e+00 -3.204910e+03  3.204910e+03 0.0 0.0 9.0
 2  1 1 2 103   0 -2.020837e+03  5.411926e+02 -2.040745e+03  2.922552e+03 0.0022 0.0 9.0
22  1 1 2   0   0  2.020837e+03 -5.411926e+02  7.895632e+02  2.236087e+03 0.0 0.0 9.0
#pdf 2 21 3.005736e-01 4.930631e-01 5000.0 2.484987e-01 7.438426e-02
</event>
<event>
4 7 1.0 5000.0 7.905138e-03 7.739137e-02
21 -1 0 0 103 101  0.000000e+00  0.000000e+00  2.252090e+03  2.252090e+03 0.0 0.0 9.0
 2 -1 0 0 101   0  0.000000e+00  0.000000e+00 -2.734091e+03  2.734091e+03 0.0 0.0 9.0
 2  1 1 2 103   0  1.892345e+03  4.738851e+02 -1.781801e+03  2.642035e+03 0.0022 0.0 9.0
22  1 1 2   0   0 -1.892345e+03 -4.738851e+02  1.299801e+03  2.344145e+03 0.0 0.0 9.0
#pdf 21 2 3.464754e-01 4.206293e-01 5000.0 2.038305e-02 8.065271e-03
</event>
<event>
4 7 1.0 5000.0 7.905138e-03 7.739137e-02
21 -1 0 0 103 101  0.000000e+00  0.000000e+00  1.941300e+03  1.941300e+03 0.0 0.0 9.0
 2 -1 0 0 101   0  0.000000e+00  0.000000e+00 -3.181645e+03  3.181645e+03 0.0 0.0 9.0
22  1 1 2   0   0  1.491516e+03 -1.918320e+03 -1.157657e+03  2.691606e+03 0.0 0.0 9.0
 2  1 1 2 103   0 -1.491516e+03  1.918320e+03 -8.268866e+01  2.431339e+03 0.0022 0.0 9.0
#pdf 21 2 2.986615e-01 4.894839e-01 5000.0 3.662654e-02 3.255193e-03
</event>
<event>
4 7 1.0 5000.0 7.905138e-03 7.739137e-02
21 -1 0 0 103 101  0.000000e+00  0.000000e+00  3.182770e+03  3.182770e+03 0.0 0.0 9.0
 2 -1 0 0 101   0  0.000000e+00  0.000000e+00 -1.940332e+03  1.940332e+03 0.0 0.0 9.0
 2  1 1 2 103   0 -1.428231e+02  2.468541e+03  8.769227e+02  2.623563e+03 0.0022 0.0 9.0
22  1 1 2   0   0  1.428231e+02 -2.468541e+03  3.655145e+02  2.499538e+03 0.0 0.0 9.0
#pdf 21 2 4.896569e-01 2.985127e-01 5000.0 3.247551e-03 3.669528e-02
</event>
<event>
4 7 1.0 5000.0 7.905138e-03 7.739137e-02
 2 -1 0 0 101   0  0.000000e+00  0.000000e+00  2.169854e+03  2.169854e+03 0.0 0.0 9.0
21 -1 0 0 103 101  0.000000e+00  0.000000e+00 -3.313533e+03  3.313533e+03 0.0 0.0 9.0
22  1 1 2   0   0 -2.413371e+03  1.092654e+03 -1.482431e+02  2.653343e+03 0.0 0.0 9.0
 2  1 1 2 103   0  2.413371e+03 -1.092654e+03 -9.954363e+02  2.830044e+03 0.0022 0.0 9.0
#pdf 2 21 3.338236e-01 5.097743e-01 5000.0 2.094043e-01 6.516920e-02
</event>
<event>
4 7 1.0 5000.0 7.905138e-03 7.739137e-02
21 -1 0 0 103 101  0.000000e+00  0.000000e+00  1.680893e+03  1.680893e+03 0.0 0.0 9.0
 2 -1 0 0 101   0  0.000000e+00  0.000000e+00 -3.797102e+03  3.797102e+03 0.0 0.0 9.0
 2  1 1 2 103   0  1.606660e+03  2.015611e+02  1.044321e+03  1.926808e+03 0.0022 0.0 9.0
22  1 1 2   0   0 -1.606660e+03 -2.015611e+02 -3.160530e+03  3.551187e+03 0.0 0.0 9.0
#pdf 21 2 2.585990e-01 5.841696e-01 5000.0 5.995131e-02 8.239316e-04
</event>
<event>
4 7 1.0 5000.0 7.905138e-03 7.739137e-02
 2 -1 0 0 101   0  0.000000e+00  0.000000e+00  3.965945e+03  3.965945e+03 0.0 0.0 9.0
21 -1 0 0 103 101  0.000000e+00  0.000000e+00 -1.197527e+03  1.197527e+03 0.0 0.0 9.0
 2  1 1 2 103   0  3.953156e+02  1.179815e+03 -7.353457e+02  1.445327e+03 0.0022 0.0 9.0
22  1 1 2   0   0 -3.953156e+02 -1.179815e+03  3.503764e+03  3.718145e+03 0.0 0.0 9.0
#pdf 2 21 6.101454e-01 1.842349e-01 5000.0 2.601730e-02 4.036599e-01
</event>
<event>
4 7 1.0 5000.0 7.905138e-03 7.739137e-02
 2 -1 0 0 101   0  0.000000e+00  0.000000e+00  2.456602e+03  2.456602e+03 0.0 0.0 9.0
21 -1 0 0 103 101  0.000000e+00  0.000000e+00 -2.495371e+03  2.495371e+03 0.0 0.0 9.0
22  1 1 2   0   0  1.712684e+03  1.576420e+03  8.242918e+02  2.469381e+03 0.0 0.0 9.0
 2  1 1 2 103   0 -1.712684e+03 -1.576420e+03 -8.630614e+02  2.482592e+03 0.0022 0.0 9.0
#pdf 2 21 3.779387e-01 3.839033e-01 5000.0 1.631559e-01 1.574251e-01
</event>
<event>
4 7 1.0 5000.0 7.905138e-03 7.739137e-02
21 -1 0 0 103 101  0.000000e+00  0.000000e+00  3.639639e+03  3.639639e+03 0.0 0.0 9.0
 2 -1 0 0 101   0  0.000000e+00  0.000000e+00 -1.613664e+03  1.613664e+03 0.0 0.0 9.0
22  1 1 2   0   0  5.356928e+02  7.234429e+02  3.451713e+03  3.567164e+03 0.0 0.0 9.0
 2  1 1 2 103   0 -5.356928e+02 -7.234429e+02 -1.425737e+03  1.686139e+03 0.0022 0.0 9.0
#pdf 21 2 5.599444e-01 2.482559e-01 5000.0 1.194296e-03 6.817731e-02
</event>
<event>
4 7 1.0 5000.0 7.905138e-03 7.739137e-02
 2 -1 0 0 101   0  0.000000e+00  0.000000e+00  3.241912e+03  3.241912e+03 0.0 0.0 9.0
21 -1 0 0 103 101  0.000000e+00  0.000000e+00 -1.711236e+03  1.711236e+03 0.0 0.0 9.0
 2  1 1 2 103   0  2.084328e+03  9.068161e+02  1.414305e+03  2.677125e+03 0.0022 0.0 9.0
22  1 1 2   0   0 -2.084328e+03 -9.068161e+02  1.163712e+02  2.276023e+03 0.0 0.0 9.0
#pdf 2 21 4.987557e-01 2.632671e-01 5000.0 7.114820e-02 2.960033e-01
</event>
<event>
4 7 1.0 5000.0 7.905138e-03 7.739137e-02
21 -1 0 0 103 101  0.000000e+00  0.000000e+00  4.347858e+03  4.347858e+03 0.0 0.0 9.0
 2 -1 0 0 101   0  0.000000e+00  0.000000e+00 -1.499392e+03  1.499392e+03 0.0 0.0 9.0
 2  1 1 2 103   0 -1.819225e+03  1.087733e+03  3.054238e+03  3.717676e+03 0.0022 0.0 9.0
22  1 1 2   0   0  1.819225e+03 -1.087733e+03 -2.057717e+02  2.129574e+03 0.0 0.0 9.0
#pdf 21 2 6.689013e-01 2.306757e-01 5000.0 1.967217e-04 8.491862e-02
</event>
<event>
4 7 1.0 5000.0 7.905138e-03 7.739137e-02
 2 -1 0 0 101   0  0.000000e+00  0.000000e+00  4.729289e+03  4.729289e+03 0.0 0.0 9.0
21 -1 0 0 103 101  0.000000e+00  0.000000e+00 -1.304018e+03  1.304018e+03 0.0 0.0 9.0
 2  1 1 2 103   0 -1.318178e+03 -5.112538e+02  4.192654e+03  4.424627e+03 0.0022 0.0 9.0
22  1 1 2   0   0  1.318178e+03  5.112538e+02 -7.673835e+02  1.608680e+03 0.0 0.0 9.0
#pdf 2 21 7.275829e-01 2.006182e-01 5000.0 6.032795e-03 3.811740e-01
</event>
<event>
4 7 1.0 5000.0 7.905138e-03 7.739137e-02
21 -1 0 0 103 101  0.000000e+00  0.000000e+00  1.684373e+03  1.684373e+03 0.0 0.0 9.0
 2 -1 0 0 101   0  0.000000e+00  0.000000e+00 -3.609533e+03  3.609533e+03 0.0 0.0 9.0
22  1 1 2   0   0  1.164290e+03 -3.138478e+02  1.346248e+03  1.807334e+03 0.0 0.0 9.0
 2  1 1 2 103   0 -1.164290e+03  3.138478e+02 -3.271408e+03  3.486572e+03 0.0022 0.0 9.0
#pdf 21 2 2.591343e-01 5.553127e-01 5000.0 5.955034e-02 1.278473e-03
</event>
<event>
4 7 1.0 5000.0 7.905138e-03 7.739137e-02
 2 -1 0 0 101   0  0.000000e+00  0.000000e+00  2.276322e+03  2.276322e+03 0.0 0.0 9.0
21 -1 0 0 103 101  0.000000e+00  0.000000e+00 -2.726783e+03  2.726783e+03 0.0 0.0 9.0
 2  1 1 2 103   0 -3.813292e+02  2.228493e+03  8.256720e+02  2.406933e+03 0.0022 0.0 9.0
22  1 1 2   0   0  3.813292e+02 -2.228493e+03 -1.276133e+03  2.596172e+03 0.0 0.0 9.0
#pdf 2 21 3.502034e-01 4.195050e-01 5000.0 1.914509e-01 1.257981e-01
</event>
<event>
4 7 1.0 5000.0 7.905138e-03 7.739137e-02
 2 -1 0 0 101   0  0.000000e+00  0.000000e+00  3.013670e+03  3.013670e+03 0.0 0.0 9.0
21 -1 0 0 103 101  0.000000e+00  0.000000e+00 -1.731046e+03  1.731046e+03 0.0 0.0 9.0
 2  1 1 2 103   0 -1.262109e+02 -1.803079e+03  2.091654e+03  2.764424e+03 0.0022 0.0 9.0
22  1 1 2   0   0  1.262109e+02  1.803079e+03 -8.090310e+02  1.980292e+03 0.0 0.0 9.0
#pdf 2 21 4.636415e-01 2.663148e-01 5000.0 9.276300e-02 2.920035e-01
</event>
<event>
4 7 1.0 5000.0 7.905138e-03 7.739137e-02
 2 -1 0 0 101   0  0.000000e+00  0.000000e+00  2.732007e+03  2.732007e+03 0.0 0.0 9.0
21 -1 0 0 103 101  0.000000e+00  0.000000e+00 -1.794077e+03  1.794077e+03 0.0 0.0 9.0
22  1 1 2   0   0 -1.820334e+03  8.761957e+02  1.394651e+03  2.454870e+03 0.0 0.0 9.0
 2  1 1 2 103   0  1.820334e+03 -8.761957e+02 -4.567215e+02  2.071214e+03 0.0022 0.0 9.0
#pdf 2 21 4.203088e-01 2.760119e-01 5000.0 1.251353e-01 2.793927e-01
</event>
<event>
4 7 1.0 5000.0 7.905138e-03 7.739137e-02
21 -1 0 0 103 101  0.000000e+00  0.000000e+00  3.720073e+03  3.720073e+03 0.0 0.0 9.0
 2 -1 0 0 101   0  0.000000e+00  0.000000e+00 -1.651686e+03  1.651686e+03 0.0 0.0 9.0
 2  1 1 2 103   0  1.656890e+03 -1.635841e+03  1.127767e+02  2.331090e+03 0.0022 0.0 9.0
22  1 1 2   0   0 -1.656890e+03  1.635841e+03  1.955610e+03  3.040669e+03 0.0 0.0 9.0
#pdf 21 2 5.723189e-01 2.541056e-01 5000.0 9.889522e-04 6.342277e-02
</event>
<event>
4 7 1.0 5000.0 7.905138e-03 7.739137e-02
 2 -1 0 0 101   0  0.000000e+00  0.000000e+00  3.816318e+03  3.816318e+03 0.0 0.0 9.0
21 -1 0 0 103 101  0.000000e+00  0.000000e+00 -2.541647e+03  2.541647e+03 0.0 0.0 9.0
22  1 1 2   0   0 -3.077363e+03 -1.758483e+02  1.823964e+02  3.087775e+03 0.0 0.0 9.0
 2  1 1 2 103   0  3.077363e+03  1.758483e+02  1.092275e+03  3.270191e+03 0.0022 0.0 9.0
#pdf 2 21 5.871259e-01 3.910227e-01 5000.0 3.279546e-02 1.507489e-01
</event>
<event>
4 7 1.0 5000.0 7.905138e-03 7.739137e-02
21 -1 0 0 103 101  0.000000e+00  0.000000e+00  2.969259e+03  2.969259e+03 0.0 0.0 9.0
 2 -1 0 0 101   0  0.000000e+00  0.000000e+00 -2.076509e+03  2.076509e+03 0.0 0.0 9.0
22  1 1 2   0   0  1.243491e+03  2.106686e+03  8.789878e+02  2.599426e+03 0.0 0.0 9.0
 2  1 1 2 103   0 -1.243491e+03 -2.106686e+03  1.376203e+01  2.446341e+03 0.0022 0.0 9.0
#pdf 21 2 4.568090e-01 3.194629e-01 5000.0 5.045541e-03 2.837908e-02
</event>
<event>
4 7 1.0 5000.0 7.905138e-03 7.739137e-02
 2 -1 0 0 101   0  0.000000e+00  0.000000e+00  3.277806e+03  3.277806e+03 0.0 0.0 9.0
21 -1 0 0 103 101  0.000000e+00  0.000000e+00 -2.029419e+03  2.029419e+03 0.0 0.0 9.0
 2  1 1 2 103   0 -1.160520e+03 -2.142627e+03 -2.454208e+02  2.449059e+03 0.0022 0.0 9.0
22  1 1 2   0   0  1.160520e+03  2.142627e+03  1.493808e+03  2.858167e+03 0.0 0.0 9.0
#pdf 2 21 5.042779e-01 3.122183e-01 5000.0 6.810560e-02 2.344162e-01
</event>
<event>
4 7 1.0 5000.0 7.905138e-03 7.739137e-02
 2 -1 0 0 101   0  0.000000e+00  0.000000e+00  2.840546e+03  2.840546e+03 0.0 0.0 9.0
21 -1 0 0 103 101  0.000000e+00  0.000000e+00 -2.244889e+03  2.244889e+03 0.0 0.0 9.0
 2  1 1 2 103   0  7.761106e+02  1.369171e+03 -1.690634e+03  2.309809e+03 0.0022 0.0 9.0
22  1 1 2   0   0 -7.761106e+02 -1.369171e+03  2.286290e+03  2.775626e+03 0.0 0.0 9.0
#pdf 2 21 4.370070e-01 3.453676e-01 5000.0 1.119064e-01 1.966606e-01
</event>
<event>
4 7 1.0 5000.0 7.905138e-03 7.739137e-02
 2 -1 0 0 101   0  0.000000e+00  0.000000e+00  1.839271e+03  1.839271e+03 0.0 0.0 9.0
21 -1 0 0 103 101  0.000000e+00  0.000000e+00 -3.407643e+03  3.407643e+03 0.0 0.0 9.0
 2  1 1 2 103   0 -1.464018e+03  1.952961e+03 -1.367801e+03  2.797907e+03 0.0022 0.0 9.0
22  1 1 2   0   0  1.464018e+03 -1.952961e+03 -2.005719e+02  2.449007e+03 0.0 0.0 9.0
#pdf 2 21 2.829647e-01 5.242528e-01 5000.0 2.704959e-01 5.786953e-02
</event>
<event>
4 7 1.0 5000.0 7.905138e-03 7.739137e-02
 2 -1 0 0 101   0  0.000000e+00  0.000000e+00  2.516943e+03  2.516943e+03 0.0 0.0 9.0
21 -1 0 0 103 101  0.000000e+00  0.000000e+00 -2.402196e+03  2.402196e+03 0.0 0.0 9.0
22  1 1 2   0   0  1.748467e+03 -1.364829e+03  1.118933e+03  2.484332e+03 0.0 0.0 9.0
 2  1 1 2 103   0 -1.748467e+03  1.364829e+03 -1.004186e+03  2.434807e+03 0.0022 0.0 9.0
#pdf 2 21 3.872220e-01 3.695687e-01 5000.0 1.542898e-01 1.713987e-01
</event>
<event>
4 7 1.0 5000.0 7.905138e-03 7.739137e-02
 2 -1 0 0 101   0  0.000000e+00  0.000000e+00  3.390751e+03  3.390751e+03 0.0 0.0 9.0
21 -1 0 0 103 101  0.000000e+00  0.000000e+00 -1.877176e+03  1.877176e+03 0.0 0.0 9.0
22  1 1 2   0   0  3.410509e+02 -9.474631e+02  3.171849e+03  3.327856e+03 0.0 0.0 9.0
 2  1 1 2 103   0 -3.410509e+02  9.474631e+02 -1.658274e+03  1.940070e+03 0.0022 0.0 9.0
#pdf 2 21 5.216540e-01 2.887963e-01 5000.0 5.913295e-02 2.631124e-01
</event>
<event>
4 7 1.0 5000.0 7.905138e-03 7.739137e-02
21 -1 0 0 103 101  0.000000e+00  0.000000e+00  3.229469e+03  3.229469e+03 0.0 0.0 9.0
 2 -1 0 0 101   0  0.000000e+00  0.000000e+00 -1.920197e+03  1.920197e+03 0.0 0.0 9.0
 2  1 1 2 103   0  1.302138e+03  1.170928e+03 -1.175994e+03  2.109407e+03 0.0022 0.0 9.0
22  1 1 2   0   0 -1.302138e+03 -1.170928e+03  2.485266e+03  3.040260e+03 0.0 0.0 9.0
#pdf 21 2 4.968415e-01 2.954150e-01 5000.0 2.944047e-03 3.813779e-02
</event>
<event>
4 7 1.0 5000.0 7.905138e-03 7.739137e-02
 2 -1 0 0 101   0  0.000000e+00  0.000000e+00  2.342499e+03  2.342499e+03 0.0 0.0 9.0
21 -1 0 0 103 101  0.000000e+00  0.000000e+00 -2.051295e+03  2.051295e+03 0.0 0.0 9.0
22  1 1 2   0   0 -1.069839e+03  1.177756e+03  1.656734e+03  2.297049e+03 0.0 0.0 9.0
 2  1 1 2 103   0  1.069839e+03 -1.177756e+03 -1.365531e+03  2.096745e+03 0.0022 0.0 9.0
#pdf 2 21 3.603844e-01 3.155839e-01 5000.0 1.807511e-01 2.304287e-01
</event>
<event>
4 7 1.0 5000.0 7.905138e-03 7.739137e-02
21 -1 0 0 103 101  0.000000e+00  0.000000e+00  4.289267e+03  4.289267e+03 0.0 0.0 9.0
 2 -1 0 0 101   0  0.000000e+00  0.000000e+00 -1.450468e+03  1.450468e+03 0.0 0.0 9.0
 2  1 1 2 103   0 -1.628359e+03 -2.178664e+02 -7.400204e+02  1.801846e+03 0.0022 0.0 9.0
22  1 1 2   0   0  1.628359e+03  2.178664e+02  3.578820e+03  3.937889e+03 0.0 0.0 9.0
#pdf 21 2 6.598872e-01 2.231488e-01 5000.0 2.323665e-04 9.343158e-02
</event>
<event>
4 7 1.0 5000.0 7.905138e-03 7.739137e-02
 2 -1 0 0 101   0  0.000000e+00  0.000000e+00  3.588197e+03  3.588197e+03 0.0 0.0 9.0
21 -1 0 0 103 101  0.000000e+00  0.000000e+00 -1.343208e+03  1.343208e+03 0.0 0.0 9.0
22  1 1 2   0   0 -1.379293e+03  1.696586e+03  1.343841e+03  2.566469e+03 0.0 0.0 9.0
 2  1 1 2 103   0  1.379293e+03 -1.696586e+03  9.011476e+02  2.364935e+03 0.0022 0.0 9.0
#pdf 2 21 5.520303e-01 2.066473e-01 5000.0 4.551200e-02 3.728710e-01
</event>
<event>
4 7 1.0 5000.0 7.905138e-03 7.739137e-02
21 -1 0 0 103 101  0.000000e+00  0.000000e+00  2.778393e+03  2.778393e+03 0.0 0.0 9.0
 2 -1 0 0 101   0  0.000000e+00  0.000000e+00 -2.240563e+03  2.240563e+03 0.0 0.0 9.0
 2  1 1 2 103   0  9.543956e+02 -2.288070e+03 -1.383185e+01  2.479179e+03 0.0022 0.0 9.0
22  1 1 2   0   0 -9.543956e+02  2.288070e+03  5.516621e+02  2.539777e+03 0.0 0.0 9.0
#pdf 21 2 4.274450e-01 3.447019e-01 5000.0 7.389592e-03 2.083010e-02
</event>
<event>
4 7 1.0 5000.0 7.905138e-03 7.739137e-02
 2 -1 0 0 101   0  0.000000e+00  0.000000e+00  4.848646e+03  4.848646e+03 0.0 0.0 9.0
21 -1 0 0 103 101  0.000000e+00  0.000000e+00 -1.295463e+03  1.295463e+03 0.0 0.0 9.0
 2  1 1 2 103   0  2.261669e+03  1.557109e+02  4.667763e+02  2.314579e+03 0.0022 0.0 9.0
22  1 1 2   0   0 -2.261669e+03 -1.557109e+02  3.086407e+03  3.829530e+03 0.0 0.0 9.0
#pdf 2 21 7.459456e-01 1.993020e-01 5000.0 4.532256e-03 3.829920e-01
</event>
<event>
4 7 1.0 5000.0 7.905138e-03 7.739137e-02
 2 -1 0 0 101   0  0.000000e+00  0.000000e+00  3.696795e+03  3.696795e+03 0.0 0.0 9.0
21 -1 0 0 103 101  0.000000e+00  0.000000e+00 -1.297526e+03  1.297526e+03 0.0 0.0 9.0
 2  1 1 2 103   0 -7.107208e+02 -4.620800e+02  3.502145e+03  3.603285e+03 0.0022 0.0 9.0
22  1 1 2   0   0  7.107208e+02  4.620800e+02 -1.102877e+03  1.391035e+03 0.0 0.0 9.0
#pdf 2 21 5.687376e-01 1.996194e-01 5000.0 3.908533e-02 3.825531e-01
</event>
<event>
4 7 1.0 5000.0 7.905138e-03 7.739137e-02
21 -1 0 0 103 101  0.000000e+00  0.000000e+00  1.874223e+03  1.874223e+03 0.0 0.0 9.0
 2 -1 0 0 101   0  0.000000e+00  0.000000e+00 -3.475092e+03  3.475092e+03 0.0 0.0 9.0
 2  1 1 2 103   0 -2.265247e+03 -1.010849e+03 -1.429199e+03  2.862826e+03 0.0022 0.0 9.0
22  1 1 2   0   0  2.265247e+03  1.010849e+03 -1.716703e+02  2.486490e+03 0.0 0.0 9.0
#pdf 21 2 2.883420e-01 5.346296e-01 5000.0 4.156491e-02 1.730372e-03
</event>
<event>
4 7 1.0 5000.0 7.905138e-03 7.739137e-02
 2 -1 0 0 101   0  0.000000e+00  0.000000e+00  1.618454e+03  1.618454e+03 0.0 0.0 9.0
21 -1 0 0 103 101  0.000000e+00  0.000000e+00 -3.811469e+03  3.811469e+03 0.0 0.0 9.0
22  1 1 2   0   0  1.553971e+03  1.806369e+03 -3.306279e+02  2.405641e+03 0.0 0.0 9.0
 2  1 1 2 103   0 -1.553971e+03 -1.806369e+03 -1.862387e+03  3.024282e+03 0.0022 0.0 9.0
#pdf 2 21 2.489929e-01 5.863799e-01 5000.0 3.149563e-01 3.303495e-02
</event>
<event>
4 7 1.0 5000.0 7.905138e-03 7.739137e-02
21 -1 0 0 103 101  0.000000e+00  0.000000e+00  3.097148e+03  3.097148e+03 0.0 0.0 9.0
 2 -1 0 0 101   0  0.000000e+00  0.000000e+00 -2.175846e+03  2.175846e+03 0.0 0.0 9.0
22  1 1 2   0   0  1.131777e+03  1.335577e+03 -1.486123e+03  2.296355e+03 0.0 0.0 9.0
 2  1 1 2 103   0 -1.131777e+03 -1.335577e+03  2.407425e+03  2.976639e+03 0.0022 0.0 9.0
#pdf 21 2 4.764843e-01 3.347455e-01 5000.0 3.882435e-03 2.353508e-02
</event>
<event>
4 7 1.0 5000.0 7.905138e-03 7.739137e-02
 2 -1 0 0 101   0  0.000000e+00  0.000000e+00  1.882684e+03  1.882684e+03 0.0 0.0 9.0
21 -1 0 0 103 101  0.000000e+00  0.000000e+00 -3.293336e+03  3.293336e+03 0.0 0.0 9.0
 2  1 1 2 103   0  3.490224e+02 -2.461971e+03 -8.415974e+02  2.625149e+03 0.0022 0.0 9.0
22  1 1 2   0   0 -3.490224e+02  2.461971e+03 -5.690549e+02  2.550871e+03 0.0 0.0 9.0
#pdf 2 21 2.896436e-01 5.066670e-01 5000.0 2.620458e-01 6.681800e-02
</event>
<event>
4 7 1.0 5000.0 7.905138e-03 7.739137e-02
 2 -1 0 0 101   0  0.000000e+00  0.000000e+00  3.659089e+03  3.659089e+03 0.0 0.0 9.0
21 -1 0 0 103 101  0.000000e+00  0.000000e+00 -1.742205e+03  1.742205e+03 0.0 0.0 9.0
22  1 1 2   0   0  2.367943e+03  8.750920e+02  1.005595e+03  2.717381e+03 0.0 0.0 9.0
 2  1 1 2 103   0 -2.367943e+03 -8.750920e+02  9.112897e+02  2.683913e+03 0.0022 0.0 9.0
#pdf 2 21 5.629368e-01 2.680316e-01 5000.0 4.125013e-02 2.897569e-01
</event>
<event>
4 7 1.0 5000.0 7.905138e-03 7.739137e-02
21 -1 0 0 103 101  0.000000e+00  0.000000e+00  2.037861e+03  2.037861e+03 0.0 0.0 9.0
 2 -1 0 0 101   0  0.000000e+00  0.000000e+00 -3.122817e+03  3.122817e+03 0.0 0.0 9.0
 2  1 1 2 103   0 -1.369498e+03  1.281926e+03 -2.267751e+03  2.943052e+03 0.0022 0.0 9.0
22  1 1 2   0   0  1.369498e+03 -1.281926e+03  1.182795e+03  2.217626e+03 0.0 0.0 9.0
#pdf 21 2 3.135170e-01 4.804335e-01 5000.0 3.053694e-02 3.680667e-03
</event>
<event>
4 7 1.0 5000.0 7.905138e-03 7.739137e-02
 2 -1 0 0 101   0  0.000000e+00  0.000000e+00  2.099335e+03  2.099335e+03 0.0 0.0 9.0
21 -1 0 0 103 101  0.000000e+00  0.000000e+00 -3.012900e+03  3.012900e+03 0.0 0.0 9.0
 2  1 1 2 103   0  1.216029e+03  5.143042e+02  1.718762e+03  2.167344e+03 0.0022 0.0 9.0
22  1 1 2   0   0 -1.216029e+03 -5.143042e+02 -2.632327e+03  2.944891e+03 0.0 0.0 9.0
#pdf 2 21 3.229747e-01 4.635230e-01 5000.0 2.217887e-01 9.284251e-02
</event>
<event>
4 7 1.0 5000.0 7.905138e-03 7.739137e-02
21 -1 0 0 103 101  0.000000e+00  0.000000e+00  1.712743e+03  1.712743e+03 0.0 0.0 9.0
 2 -1 0 0 101   0  0.000000e+00  0.000000e+00 -3.915807e+03  3.915807e+03 0.0 0.0 9.0
22  1 1 2   0   0  5.135725e+02 -2.519252e+03 -7.641571e+02  2.682224e+03 0.0 0.0 9.0
 2  1 1 2 103   0 -5.135725e+02  2.519252e+03 -1.438907e+03  2.946327e+03 0.0022 0.0 9.0
#pdf 21 2 2.634990e-01 6.024318e-01 5000.0 5.639358e-02 6.174545e-04
</event>
<event>
4 7 1.0 5000.0 7.905138e-03 7.739137e-02
21 -1 0 0 103 101  0.000000e+00  0.000000e+00  2.445166e+03  2.445166e+03 0.0 0.0 9.0
 2 -1 0 0 101   0  0.000000e+00  0.000000e+00 -2.555605e+03  2.555605e+03 0.0 0.0 9.0
22  1 1 2   0   0  1.869056e+03 -1.104844e+03 -1.294403e+03  2.527752e+03 0.0 0.0 9.0
 2  1 1 2 103   0 -1.869056e+03  1.104844e+03  1.183964e+03  2.473019e+03 0.0022 0.0 9.0
#pdf 21 2 3.761794e-01 3.931699e-01 5000.0 1.412855e-02 1.141895e-02
</event>
<event>
4 7 1.0 5000.0 7.905138e-03 7.739137e-02
 2 -1 0 0 101   0  0.000000e+00  0.000000e+00  3.722485e+03  3.722485e+03 0.0 0.0 9.0
21 -1 0 0 103 101  0.000000e+00  0.000000e+00 -1.742473e+03  1.742473e+03 0.0 0.0 9.0
22  1 1 2   0   0  1.522828e+03  5.545366e+02  3.097860e+03  3.496177e+03 0.0 0.0 9.0
 2  1 1 2 103   0 -1.522828e+03 -5.545366e+02 -1.117848e+03  1.968782e+03 0.0022 0.0 9.0
#pdf 2 21 5.726900e-01 2.680728e-01 5000.0 3.766185e-02 2.897030e-01
</event>
<event>
4 7 1.0 5000.0 7.905138e-03 7.739137e-02
 2 -1 0 0 101   0  0.000000e+00  0.000000e+00  3.394485e+03  3.394485e+03 0.0 0.0 9.0
21 -1 0 0 103 101  0.000000e+00  0.000000e+00 -1.746894e+03  1.746894e+03 0.0 0.0 9.0
22  1 1 2   0   0  1.115149e+03 -4.051214e+01 -1.461097e+03  1.838479e+03 0.0 0.0 9.0
 2  1 1 2 103   0 -1.115149e+03  4.051214e+01  3.108689e+03  3.302899e+03 0.0022 0.0 9.0
#pdf 2 21 5.222284e-01 2.687529e-01 5000.0 5.885200e-02 2.888146e-01
</event>
<event>
4 7 1.0 5000.0 7.905138e-03 7.739137e-02
 2 -1 0 0 101   0  0.000000e+00  0.000000e+00  2.314844e+03  2.314844e+03 0.0 0.0 9.0
21 -1 0 0 103 101  0.000000e+00  0.000000e+00 -2.738713e+03  2.738713e+03 0.0 0.0 9.0
 2  1 1 2 103   0  1.389138e+03  3.724860e+02  1.862073e+03  2.352821e+03 0.0022 0.0 9.0
22  1 1 2   0   0 -1.389138e+03 -3.724860e+02 -2.285942e+03  2.700737e+03 0.0 0.0 9.0
#pdf 2 21 3.561299e-01 4.213405e-01 5000.0 1.851786e-01 1.242881e-01
</event>
<event>
4 7 1.0 5000.0 7.905138e-03 7.739137e-02
 2 -1 0 0 101   0  0.000000e+00  0.000000e+00  1.942289e+03  1.942289e+03 0.0 0.0 9.0
21 -1 0 0 103 101  0.000000e+00  0.000000e+00 -3.000775e+03  3.000775e+03 0.0 0.0 9.0
 2  1 1 2 103   0 -1.711768e+03 -1.693929e+03 -3.554232e+02  2.434311e+03 0.0022 0.0 9.0
22  1 1 2   0   0  1.711768e+03  1.693929e+03 -7.030628e+02  2.508753e+03 0.0 0.0 9.0
#pdf 2 21 2.988137e-01 4.616577e-01 5000.0 2.506525e-01 9.410196e-02
</event>
<event>
4 7 1.0 5000.0 7.905138e-03 7.739137e-02
21 -1 0 0 103 101  0.000000e+00  0.000000e+00  3.132356e+03  3.132356e+03 0.0 0.0 9.0
 2 -1 0 0 101   0  0.000000e+00  0.000000e+00 -1.962972e+03  1.962972e+03 0.0 0.0 9.0
 2  1 1 2 103   0 -1.838689e+03  9.010412e+02 -8.522599e+02  2.217882e+03 0.0022 0.0 9.0
22  1 1 2   0   0  1.838689e+03 -9.010412e+02  2.021644e+03  2.877446e+03 0.0 0.0 9.0
#pdf 21 2 4.819009e-01 3.019957e-01 5000.0 3.608065e-03 3.516049e-02
</event>
<event>
4 7 1.0 5000.0 7.905138e-03 7.739137e-02
21 -1 0 0 103 101  0.000000e+00  0.000000e+00  3.491923e+03  3.491923e+03 0.0 0.0 9.0
 2 -1 0 0 101   0  0.000000e+00  0.000000e+00 -1.594871e+03  1.594871e+03 0.0 0.0 9.0
 2  1 1 2 103   0 -6.869604e+02 -1.782795e+03  2.441475e+03  3.100172e+03 0.0022 0.0 9.0
22  1 1 2   0   0  6.869604e+02  1.782795e+03 -5.444228e+02  1.986622e+03 0.0 0.0 9.0
#pdf 21 2 5.372190e-01 2.453648e-01 5000.0 1.665783e-03 7.062460e-02
</event>
<event>
4 7 1.0 5000.0 7.905138e-03 7.739137e-02
 2 -1 0 0 101   0  0.000000e+00  0.000000e+00  2.795195e+03  2.795195e+03 0.0 0.0 9.0
21 -1 0 0 103 101  0.000000e+00  0.000000e+00 -2.280781e+03  2.280781e+03 0.0 0.0 9.0
22  1 1 2   0   0  2.863942e+02  2.262153e+03  1.347194e+03  2.648451e+03 0.0 0.0 9.0
 2  1 1 2 103   0 -2.863942e+02 -2.262153e+03 -8.327799e+02  2.427526e+03 0.0022 0.0 9.0
#pdf 2 21 4.300300e-01 3.508894e-01 5000.0 1.173090e-01 1.907184e-01
</event>
<event>
4 7 1.0 5000.0 7.905138e-03 7.739137e-02
21 -1 0 0 103 101  0.000000e+00  0.000000e+00  2.252229e+03  2.252229e+03 0.0 0.0 9.0
 2 -1 0 0 101   0  0.000000e+00  0.000000e+00 -2.978591e+03  2.978591e+03 0.0 0.0 9.0
 2  1 1 2 103   0  1.282886e+03  6.432463e+02  1.814045e+03  2.313076e+03 0.0022 0.0 9.0
22  1 1 2   0   0 -1.282886e+03 -6.432463e+02 -2.540407e+03  2.917744e+03 0.0 0.0 9.0
#pdf 21 2 3.464968e-01 4.582448e-01 5000.0 2.037771e-02 4.949973e-03
</event>
<event>
4 7 1.0 5000.0 7.905138e-03 7.739137e-02
21 -1 0 0 103 101  0.000000e+00  0.000000e+00  3.134367e+03  3.134367e+03 0.0 0.0 9.0
 2 -1 0 0 101   0  0.000000e+00  0.000000e+00 -1.938789e+03  1.938789e+03 0.0 0.0 9.0
 2  1 1 2 103   0 -1.720541e+03  1.086238e+02  2.410907e+03  2.963871e+03 0.0022 0.0 9.0
22  1 1 2   0   0  1.720541e+03 -1.086238e+02 -1.215328e+03  2.109285e+03 0.0 0.0 9.0
#pdf 21 2 4.822103e-01 2.982752e-01 5000.0 3.592938e-03 3.680509e-02
</event>
<event>
4 7 1.0 5000.0 7.905138e-03 7.739137e-02
21 -1 0 0 103 101  0.000000e+00  0.000000e+00  3.084889e+03  3.084889e+03 0.0 0.0 9.0
 2 -1 0 0 101   0  0.000000e+00  0.000000e+00 -2.374989e+03  2.374989e+03 0.0 0.0 9.0
22  1 1 2   0   0 -1.258996e+02 -1.701902e+03 -1.764050e+03  2.454424e+03 0.0 0.0 9.0
 2  1 1 2 103   0  1.258996e+02  1.701902e+03  2.473951e+03  3.005454e+03 0.0022 0.0 9.0
#pdf 21 2 4.745983e-01 3.653829e-01 5000.0 3.982155e-03 1.614373e-02
</event>
<event>
4 7 1.0 5000.0 7.905138e-03 7.739137e-02
 2 -1 0 0 101   0  0.000000e+00  0.000000e+00  1.520956e+03  1.520956e+03 0.0 0.0 9.0
21 -1 0 0 103 101  0.000000e+00  0.000000e+00 -4.176207e+03  4.176207e+03 0.0 0.0 9.0
 2  1 1 2 103   0 -5.741911e+02 -1.623849e+03 -3.407200e+03  3.817799e+03 0.0022 0.0 9.0
22  1 1 2   0   0  5.741911e+02  1.623849e+03  7.519486e+02  1.879363e+03 0.0 0.0 9.0
#pdf 2 21 2.339932e-01 6.424934e-01 5000.0 3.352555e-01 1.830503e-02
</event>
<event>
4 7 1.0 5000.0 7.905138e-03 7.739137e-02
 2 -1 0 0 101   0  0.000000e+00  0.000000e+00  1.990851e+03  1.990851e+03 0.0 0.0 9.0
21 -1 0 0 103 101  0.000000e+00  0.000000e+00 -3.144787e+03  3.144787e+03 0.0 0.0 9.0
 2  1 1 2 103   0  1.430189e+03  1.374599e+03  9.881227e+02  2.216156e+03 0.0022 0.0 9.0
22  1 1 2   0   0 -1.430189e+03 -1.374599e+03 -2.142058e+03  2.919482e+03 0.0 0.0 9.0
#pdf 2 21 3.062848e-01 4.838133e-01 5000.0 2.415348e-01 7.986063e-02
</event>
<event>
4 7 1.0 5000.0 7.905138e-03 7.739137e-02
 2 -1 0 0 101   0  0.000000e+00  0.000000e+00  4.337400e+03  4.337400e+03 0.0 0.0 9.0
21 -1 0 0 103 101  0.000000e+00  0.000000e+00 -1.451478e+03  1.451478e+03 0.0 0.0 9.0
22  1 1 2   0   0 -6.165150e+01 -1.613105e+03  3.658819e+03  3.999108e+03 0.0 0.0 9.0
 2  1 1 2 103   0  6.165150e+01  1.613105e+03 -7.728961e+02  1.789770e+03 0.0022 0.0 9.0
#pdf 2 21 6.672923e-01 2.233042e-01 5000.0 1.365473e-02 3.498885e-01
</event>
<event>
4 7 1.0 5000.0 7.905138e-03 7.739137e-02
 2 -1 0 0 101   0  0.000000e+00  0.000000e+00  2.034600e+03  2.034600e+03 0.0 0.0 9.0
21 -1 0 0 103 101  0.000000e+00  0.000000e+00 -3.505989e+03  3.505989e+03 0.0 0.0 9.0
 2  1 1 2 103   0 -2.420549e+03 -4.843622e+02  3.219002e+02  2.489434e+03 0.0022 0.0 9.0
22  1 1 2   0   0  2.420549e+03  4.843622e+02 -1.793289e+03  3.051155e+03 0.0 0.0 9.0
#pdf 2 21 3.130154e-01 5.393829e-01 5000.0 2.334686e-01 5.087393e-02
</event>
<event>
4 7 1.0 5000.0 7.905138e-03 7.739137e-02
 2 -1 0 0 101   0  0.000000e+00  0.000000e+00  3.392374e+03  3.392374e+03 0.0 0.0 9.0
21 -1 0 0 103 101  0.000000e+00  0.000000e+00 -1.643664e+03  1.643664e+03 0.0 0.0 9.0
22  1 1 2   0   0 -5.388656e+02  1.736128e+03 -7.327634e+02  1.959964e+03 0.0 0.0 9.0
 2  1 1 2 103   0  5.388656e+02 -1.736128e+03  2.481474e+03  3.076074e+03 0.0022 0.0 9.0
#pdf 2 21 5.219038e-01 2.528713e-01 5000.0 5.901068e-02 3.097535e-01
</event>
<event>
4 7 1.0 5000.0 7.905138e-03 7.739137e-02
21 -1 0 0 103 101  0.000000e+00  0.000000e+00  1.936282e+03  1.936282e+03 0.0 0.0 9.0
 2 -1 0 0 101   0  0.000000e+00  0.000000e+00 -3.077100e+03  3.077100e+03 0.0 0.0 9.0
22  1 1 2   0   0  1.989378e+03 -6.031514e+02 -1.884219e+03  2.805654e+03 0.0 0.0 9.0
 2  1 1 2 103   0 -1.989378e+03  6.031514e+02  7.434010e+02  2.207728e+03 0.0022 0.0 9.0
#pdf 21 2 2.978895e-01 4.734000e-01 5000.0 3.698364e-02 4.046681e-03
</event>
<event>
4 7 1.0 5000.0 7.905138e-03 7.739137e-02
 2 -1 0 0 101   0  0.000000e+00  0.000000e+00  1.439109e+03  1.439109e+03 0.0 0.0 9.0
21 -1 0 0 103 101  0.000000e+00  0.000000e+00 -4.254125e+03  4.254125e+03 0.0 0.0 9.0
22  1 1 2   0   0 -1.268837e+03  1.171854e+03 -3.445816e+03  3.854457e+03 0.0 0.0 9.0
 2  1 1 2 103   0  1.268837e+03 -1.171854e+03  6.308013e+02  1.838777e+03 0.0022 0.0 9.0
#pdf 2 21 2.214015e-01 6.544807e-01 5000.0 3.524923e-01 1.594047e-02
</event>
<event>
4 7 1.0 5000.0 7.905138e-03 7.739137e-02
 2 -1 0 0 101   0  0.000000e+00  0.000000e+00  2.724085e+03  2.724085e+03 0.0 0.0 9.0
21 -1 0 0 103 101  0.000000e+00  0.000000e+00 -2.214771e+03  2.214771e+03 0.0 0.0 9.0
22  1 1 2   0   0  4.710635e+02 -1.858617e+03  1.798095e+03  2.628594e+03 0.0 0.0 9.0
 2  1 1 2 103   0 -4.710635e+02  1.858617e+03 -1.288781e+03  2.310263e+03 0.0022 0.0 9.0
#pdf 2 21 4.190901e-01 3.407340e-01 5000.0 1.261411e-01 2.017255e-01
</event>
<event>
4 7 1.0 5000.0 7.905138e-03 7.739137e-02
 2 -1 0 0 101   0  0.000000e+00  0.000000e+00  2.467320e+03  2.467320e+03 0.0 0.0 9.0
21 -1 0 0 103 101  0.000000e+00  0.000000e+00 -2.387377e+03  2.387377e+03 0.0 0.0 9.0
 2  1 1 2 103   0 -4.888241e+02 -1.582388e+03  1.814338e+03  2.456567e+03 0.0022 0.0 9.0
22  1 1 2   0   0  4.888241e+02  1.582388e+03 -1.734395e+03  2.398129e+03 0.0 0.0 9.0
#pdf 2 21 3.795876e-01 3.672887e-01 5000.0 1.615598e-01 1.736945e-01
</event>
<event>
4 7 1.0 5000.0 7.905138e-03 7.739137e-02
 2 -1 0 0 101   0  0.000000e+00  0.000000e+00  2.408668e+03  2.408668e+03 0.0 0.0 9.0
21 -1 0 0 103 101  0.000000e+00  0.000000e+00 -2.547769e+03  2.547769e+03 0.0 0.0 9.0
 2  1 1 2 103   0 -2.089715e+03  7.087650e+02  1.056713e+03  2.446610e+03 0.0022 0.0 9.0
22  1 1 2   0   0  2.089715e+03 -7.087650e+02 -1.195814e+03  2.509827e+03 0.0 0.0 9.0
#pdf 2 21 3.705643e-01 3.919644e-01 5000.0 1.704027e-01 1.498794e-01
</event>
<event>
4 7 1.0 5000.0 7.905138e-03 7.739137e-02
21 -1 0 0 103 101  0.000000e+00  0.000000e+00  4.241506e+03  4.241506e+03 0.0 0.0 9.0
 2 -1 0 0 101   0  0.000000e+00  0.000000e+00 -1.508379e+03  1.508379e+03 0.0 0.0 9.0
22  1 1 2   0   0  2.294682e+03  9.921705e+02  9.295481e+02  2.667214e+03 0.0 0.0 9.0
 2  1 1 2 103   0 -2.294682e+03 -9.921705e+02  1.803579e+03  3.082672e+03 0.0022 0.0 9.0
#pdf 21 2 6.525394e-01 2.320584e-01 5000.0 2.649468e-04 8.346581e-02
</event>
<event>
4 7 1.0 5000.0 7.905138e-03 7.739137e-02
 2 -1 0 0 101   0  0.000000e+00  0.000000e+00  2.608246e+03  2.608246e+03 0.0 0.0 9.0
21 -1 0 0 103 101  0.000000e+00  0.000000e+00 -2.377280e+03  2.377280e+03 0.0 0.0 9.0
22  1 1 2   0   0  8.876755e+02  1.456530e+03  1.931568e+03  2.576898e+03 0.0 0.0 9.0
 2  1 1 2 103   0 -8.876755e+02 -1.456530e+03 -1.700601e+03  2.408629e+03 0.0022 0.0 9.0
#pdf 2 21 4.012687e-01 3.657354e-01 5000.0 1.414433e-01 1.752684e-01
</event>
<event>
4 7 1.0 5000.0 7.905138e-03 7.739137e-02
21 -1 0 0 103 101  0.000000e+00  0.000000e+00  3.709790e+03  3.709790e+03 0.0 0.0 9.0
 2 -1 0 0 101   0  0.000000e+00  0.000000e+00 -1.593451e+03  1.593451e+03 0.0 0.0 9.0
22  1 1 2   0   0  1.705858e+03 -9.182347e+02  2.660380e+03  3.291007e+03 0.0 0.0 9.0
 2  1 1 2 103   0 -1.705858e+03  9.182347e+02 -5.440410e+02  2.012234e+03 0.0022 0.0 9.0
#pdf 21 2 5.707370e-01 2.451463e-01 5000.0 1.013314e-03 7.082509e-02
</event>
<event>
4 7 1.0 5000.0 7.905138e-03 7.739137e-02
 2 -1 0 0 101   0  0.000000e+00  0.000000e+00  4.288031e+03  4.288031e+03 0.0 0.0 9.0
21 -1 0 0 103 101  0.000000e+00  0.000000e+00 -1.405105e+03  1.405105e+03 0.0 0.0 9.0
22  1 1 2   0   0  7.883612e+02  5.321734e+02  4.065625e+03  4.175408e+03 0.0 0.0 9.0
 2  1 1 2 103   0 -7.883612e+02 -5.321734e+02 -1.182699e+03  1.517728e+03 0.0022 0.0 9.0
#pdf 2 21 6.596971e-01 2.161699e-01 5000.0 1.498273e-02 3.596719e-01
</event>
<event>
4 7 1.0 5000.0 7.905138e-03 7.739137e-02
 2 -1 0 0 101   0  0.000000e+00  0.000000e+00  2.665951e+03  2.665951e+03 0.0 0.0 9.0
21 -1 0 0 103 101  0.000000e+00  0.000000e+00 -2.568705e+03  2.568705e+03 0.0 0.0 9.0
22  1 1 2   0   0  9.195408e+02 -1.000116e+03  2.285581e+03  2.658885e+03 0.0 0.0 9.0
 2  1 1 2 103   0 -9.195408e+02  1.000116e+03 -2.188335e+03  2.575771e+03 0.0022 0.0 9.0
#pdf 2 21 4.101463e-01 3.951854e-01 5000.0 1.336807e-01 1.469265e-01
</event>
<event>
4 7 1.0 5000.0 7.905138e-03 7.739137e-02
 2 -1 0 0 101   0  0.000000e+00  0.000000e+00  3.942686e+03  3.942686e+03 0.0 0.0 9.0
21 -1 0 0 103 101  0.000000e+00  0.000000e+00 -1.527461e+03  1.527461e+03 0.0 0.0 9.0
22  1 1 2   0   0 -1.362569e+02  2.138850e+03  2.539944e+03  3.323336e+03 0.0 0.0 9.0
 2  1 1 2 103   0  1.362569e+02 -2.138850e+03 -1.247194e+02  2.146811e+03 0.0022 0.0 9.0
#pdf 2 21 6.065670e-01 2.349940e-01 5000.0 2.699719e-02 3.338855e-01
</event>
<event>
4 7 1.0 5000.0 7.905138e-03 7.739137e-02
21 -1 0 0 103 101  0.000000e+00  0.000000e+00  1.184555e+03  1.184555e+03 0.0 0.0 9.0
 2 -1 0 0 101   0  0.000000e+00  0.000000e+00 -4.267784e+03  4.267784e+03 0.0 0.0 9.0
22  1 1 2   0   0  1.517813e+03  1.185087e+02 -3.547752e+03  3.860615e+03 0.0 0.0 9.0
 2  1 1 2 103   0 -1.517813e+03 -1.185087e+02  4.645231e+02  1.591723e+03 0.0022 0.0 9.0
#pdf 21 2 1.822392e-01 6.565821e-01 5000.0 1.592595e-01 2.466708e-04
</event>
<event>
4 7 1.0 5000.0 7.905138e-03 7.739137e-02
 2 -1 0 0 101   0  0.000000e+00  0.000000e+00  2.731544e+03  2.731544e+03 0.0 0.0 9.0
21 -1 0 0 103 101  0.000000e+00  0.000000e+00 -2.531641e+03  2.531641e+03 0.0 0.0 9.0
22  1 1 2   0   0 -7.575704e+02  1.862843e+03  1.795634e+03  2.695997e+03 0.0 0.0 9.0
 2  1 1 2 103   0  7.575704e+02 -1.862843e+03 -1.595731e+03  2.567188e+03 0.0022 0.0 9.0
#pdf 2 21 4.202375e-01 3.894832e-01 5000.0 1.251941e-01 1.521766e-01
</event>
<event>
4 7 1.0 5000.0 7.905138e-03 7.739137e-02
 2 -1 0 0 101   0  0.000000e+00  0.000000e+00  1.780885e+03  1.780885e+03 0.0 0.0 9.0
21 -1 0 0 103 101  0.000000e+00  0.000000e+00 -3.548335e+03  3.548335e+03 0.0 0.0 9.0
 2  1 1 2 103   0  1.154078e+03  8.456751e+02 -3.074636e+03  3.391231e+03 0.0022 0.0 9.0
22  1 1 2   0   0 -1.154078e+03 -8.456751e+02  1.307186e+03  1.937988e+03 0.0 0.0 9.0
#pdf 2 21 2.739823e-01 5.458976e-01 5000.0 2.820146e-01 4.806643e-02
</event>
<event>
4 7 1.0 5000.0 7.905138e-03 7.739137e-02
21 -1 0 0 103 101  0.000000e+00  0.000000e+00  3.218411e+03  3.218411e+03 0.0 0.0 9.0
 2 -1 0 0 101   0  0.000000e+00  0.000000e+00 -1.938651e+03  1.938651e+03 0.0 0.0 9.0
22  1 1 2   0   0  2.088858e+03 -6.017200e+02 -6.302892e+02  2.263330e+03 0.0 0.0 9.0
 2  1 1 2 103   0 -2.088858e+03  6.017200e+02  1.910050e+03  2.893732e+03 0.0022 0.0 9.0
#pdf 21 2 4.951402e-01 2.982539e-01 5000.0 3.013597e-03 3.681492e-02
</event>
<event>
4 7 1.0 5000.0 7.905138e-03 7.739137e-02
21 -1 0 0 103 101  0.000000e+00  0.000000e+00  2.494702e+03  2.494702e+03 0.0 0.0 9.0
 2 -1 0 0 101   0  0.000000e+00  0.000000e+00 -2.464641e+03  2.464641e+03 0.0 0.0 9.0
 2  1 1 2 103   0 -2.215922e+03  6.438924e+02  9.225927e+02  2.485173e+03 0.0022 0.0 9.0
22  1 1 2   0   0  2.215922e+03 -6.438924e+02 -8.925311e+02  2.474170e+03 0.0 0.0 9.0
#pdf 21 2 3.838003e-01 3.791755e-01 5000.0 1.284936e-02 1.361481e-02
</event>
<event>
4 7 1.0 5000.0 7.905138e-03 7.739137e-02
 2 -1 0 0 101   0  0.000000e+00  0.000000e+00  1.651979e+03  1.651979e+03 0.0 0.0 9.0
21 -1 0 0 103 101  0.000000e+00  0.000000e+00 -3.693612e+03  3.693612e+03 0.0 0.0 9.0
22  1 1 2   0   0 -2.119210e+03 -8.468988e+02  1.958714e+00  2.282168e+03 0.0 0.0 9.0
 2  1 1 2 103   0  2.119210e+03  8.468988e+02 -2.043592e+03  3.063423e+03 0.0022 0.0 9.0
#pdf 2 21 2.541506e-01 5.682481e-01 5000.0 3.080484e-01 3.926473e-02
</event>
<event>
4 7 1.0 5000.0 7.905138e-03 7.739137e-02
21 -1 0 0 103 101  0.000000e+00  0.000000e+00  2.332668e+03  2.332668e+03 0.0 0.0 9.0
 2 -1 0 0 101   0  0.000000e+00  0.000000e+00 -1.921264e+03  1.921264e+03 0.0 0.0 9.0
 2  1 1 2 103   0  6.329468e+02  8.878027e+02  2.028871e+03  2.303288e+03 0.0022 0.0 9.0
22  1 1 2   0   0 -6.329468e+02 -8.878027e+02 -1.617467e+03  1.950645e+03 0.0 0.0 9.0
#pdf 21 2 3.588720e-01 2.955791e-01 5000.0 1.748844e-02 3.806070e-02
</event>
<event>
4 7 1.0 5000.0 7.905138e-03 7.739137e-02
21 -1 0 0 103 101  0.000000e+00  0.000000e+00  3.209875e+03  3.209875e+03 0.0 0.0 9.0
 2 -1 0 0 101   0  0.000000e+00  0.000000e+00 -1.913071e+03  1.913071e+03 0.0 0.0 9.0
22  1 1 2   0   0 -1.648861e+03 -8.091293e+02  2.367922e+03  2.996746e+03 0.0 0.0 9.0
 2  1 1 2 103   0  1.648861e+03  8.091293e+02 -1.071118e+03  2.126200e+03 0.0022 0.0 9.0
#pdf 21 2 4.938269e-01 2.943186e-01 5000.0 3.068224e-03 3.865486e-02
</event>
<event>
4 7 1.0 5000.0 7.905138e-03 7.739137e-02
21 -1 0 0 103 101  0.000000e+00  0.000000e+00  3.759060e+03  3.759060e+03 0.0 0.0 9.0
 2 -1 0 0 101   0  0.000000e+00  0.000000e+00 -1.657129e+03  1.657129e+03 0.0 0.0 9.0
 2  1 1 2 103   0  1.704951e+03  1.101020e+03  2.627131e+03  3.319778e+03 0.0022 0.0 9.0
22  1 1 2   0   0 -1.704951e+03 -1.101020e+03 -5.252001e+02  2.096411e+03 0.0 0.0 9.0
#pdf 21 2 5.783169e-01 2.549429e-01 5000.0 9.018519e-04 6.276250e-02
</event>
<event>
4 7 1.0 5000.0 7.905138e-03 7.739137e-02
21 -1 0 0 103 101  0.000000e+00  0.000000e+00  2.118074e+03  2.118074e+03 0.0 0.0 9.0
 2 -1 0 0 101   0  0.000000e+00  0.000000e+00 -2.951512e+03  2.951512e+03 0.0 0.0 9.0
22  1 1 2   0   0  8.025492e+02  3.885856e+02 -2.784842e+03  2.924111e+03 0.0 0.0 9.0
 2  1 1 2 103   0 -8.025492e+02 -3.885856e+02  1.951404e+03  2.145475e+03 0.0022 0.0 9.0
#pdf 21 2 3.258576e-01 4.540787e-01 5000.0 2.624301e-02 5.231457e-03
</event>
<event>
4 7 1.0 5000.0 7.905138e-03 7.739137e-02
21 -1 0 0 103 101  0.000000e+00  0.000000e+00  2.678354e+03  2.678354e+03 0.0 0.0 9.0
 2 -1 0 0 101   0  0.000000e+00  0.000000e+00 -2.442536e+03  2.442536e+03 0.0 0.0 9.0
 2  1 1 2 103   0  1.826335e+03  1.665488e+03 -5.405303e+02  2.530123e+03 0.0022 0.0 9.0
22  1 1 2   0   0 -1.826335e+03 -1.665488e+03  7.763481e+02  2.590766e+03 0.0 0.0 9.0
#pdf 21 2 4.120544e-01 3.757747e-01 5000.0 8.995463e-03 1.419891e-02
</event>
<event>
4 7 1.0 5000.0 7.905138e-03 7.739137e-02
 2 -1 0 0 101   0  0.000000e+00  0.000000e+00  2.883585e+03  2.883585e+03 0.0 0.0 9.0
21 -1 0 0 103 101  0.000000e+00  0.000000e+00 -2.058945e+03  2.058945e+03 0.0 0.0 9.0
22  1 1 2   0   0 -1.568401e+03 -1.850930e+03  1.825656e+02  2.432931e+03 0.0 0.0 9.0
 2  1 1 2 103   0  1.568401e+03  1.850930e+03  6.420747e+02  2.509598e+03 0.0022 0.0 9.0
#pdf 2 21 4.436285e-01 3.167607e-01 5000.0 1.069149e-01 2.290426e-01
</event>
<event>
4 7 1.0 5000.0 7.905138e-03 7.739137e-02
 2 -1 0 0 101   0  0.000000e+00  0.000000e+00  6.187669e+03  6.187669e+03 0.0 0.0 9.0
21 -1 0 0 103 101  0.000000e+00  0.000000e+00 -1.006943e+03  1.006943e+03 0.0 0.0 9.0
 2  1 1 2 103   0 -1.279721e+03  2.122032e+03  3.022526e+03  3.908499e+03 0.0022 0.0 9.0
22  1 1 2   0   0  1.279721e+03 -2.122032e+03  2.158201e+03  3.286113e+03 0.0 0.0 9.0
#pdf 2 21 9.519491e-01 1.549143e-01 5000.0 6.205476e-06 4.433707e-01
</event>
<event>
4 7 1.0 5000.0 7.905138e-03 7.739137e-02
21 -1 0 0 103 101  0.000000e+00  0.000000e+00  3.333023e+03  3.333023e+03 0.0 0.0 9.0
 2 -1 0 0 101   0  0.000000e+00  0.000000e+00 -1.867773e+03  1.867773e+03 0.0 0.0 9.0
22  1 1 2   0   0  1.880247e+03 -1.418568e+03  1.590585e+03  2.842116e+03 0.0 0.0 9.0
 2  1 1 2 103   0 -1.880247e+03  1.418568e+03 -1.253345e+02  2.358680e+03 0.0022 0.0 9.0
#pdf 21 2 5.127728e-01 2.873497e-01 5000.0 2.360367e-03 4.206723e-02
</event>
<event>
4 7 1.0 5000.0 7.905138e-03 7.739137e-02
21 -1 0 0 103 101  0.000000e+00  0.000000e+00  1.968770e+03  1.968770e+03 0.0 0.0 9.0
 2 -1 0 0 101   0  0.000000e+00  0.000000e+00 -3.161908e+03  3.161908e+03 0.0 0.0 9.0
22  1 1 2   0   0 -5.980281e+02 -1.214374e+03 -2.751532e+03  3.066475e+03 0.0 0.0 9.0
 2  1 1 2 103   0  5.980281e+02  1.214374e+03  1.558394e+03  2.064203e+03 0.0022 0.0 9.0
#pdf 21 2 3.028877e-01 4.864474e-01 5000.0 3.478748e-02 3.392183e-03
</event>
<event>
4 7 1.0 5000.0 7.905138e-03 7.739137e-02
 2 -1 0 0 101   0  0.000000e+00  0.000000e+00  2.234126e+03  2.234126e+03 0.0 0.0 9.0
21 -1 0 0 103 101  0.000000e+00  0.000000e+00 -2.819983e+03  2.819983e+03 0.0 0.0 9.0
 2  1 1 2 103   0 -1.438074e+03 -1.517360e+03  1.105658e+03  2.364935e+03 0.0022 0.0 9.0
22  1 1 2   0   0  1.438074e+03  1.517360e+03 -1.691515e+03  2.689175e+03 0.0 0.0 9.0
#pdf 2 21 3.437118e-01 4.338435e-01 5000.0 1.984626e-01 1.143358e-01
</event>
<event>
4 7 1.0 5000.0 7.905138e-03 7.739137e-02
 2 -1 0 0 101   0  0.000000e+00  0.000000e+00  2.198342e+03  2.198342e+03 0.0 0.0 9.0
21 -1 0 0 103 101  0.000000e+00  0.000000e+00 -2.392670e+03  2.392670e+03 0.0 0.0 9.0
 2  1 1 2 103   0  1.483336e+03 -1.220206e+03  1.157244e+03  2.242410e+03 0.0022 0.0 9.0
22  1 1 2   0   0 -1.483336e+03  1.220206e+03 -1.351572e+03  2.348603e+03 0.0 0.0 9.0
#pdf 2 21 3.382065e-01 3.681031e-01 5000.0 2.045167e-01 1.728724e-01
</event>
<event>
4 7 1.0 5000.0 7.905138e-03 7.739137e-02
 2 -1 0 0 101   0  0.000000e+00  0.000000e+00  2.977920e+03  2.977920e+03 0.0 0.0 9.0
21 -1 0 0 103 101  0.000000e+00  0.000000e+00 -2.002565e+03  2.002565e+03 0.0 0.0 9.0
 2  1 1 2 103   0  5.529849e+01  2.160101e+03  1.647852e+03  2.717446e+03 0.0022 0.0 9.0
22  1 1 2   0   0 -5.529849e+01 -2.160101e+03 -6.724961e+02  2.263039e+03 0.0 0.0 9.0
#pdf 2 21 4.581416e-01 3.080869e-01 5000.0 9.651553e-02 2.393606e-01
</event>
<event>
4 7 1.0 5000.0 7.905138e-03 7.739137e-02
 2 -1 0 0 101   0  0.000000e+00  0.000000e+00  2.092295e+03  2.092295e+03 0.0 0.0 9.0
21 -1 0 0 103 101  0.000000e+00  0.000000e+00 -2.141392e+03  2.141392e+03 0.0 0.0 9.0
22  1 1 2   0   0 -5.229502e+02 -1.653306e+03 -1.238520e+03  2.130922e+03 0.0 0.0 9.0
 2  1 1 2 103   0  5.229502e+02  1.653306e+03  1.189423e+03  2.102766e+03 0.0022 0.0 9.0
#pdf 2 21 3.218916e-01 3.294450e-01 5000.0 2.230454e-01 2.143554e-01
</event>
<event>
4 7 1.0 5000.0 7.905138e-03 7.739137e-02
 2 -1 0 0 101   0  0.000000e+00  0.000000e+00  1.647286e+03  1.647286e+03 0.0 0.0 9.0
21 -1 0 0 103 101  0.000000e+00  0.000000e+00 -3.861475e+03  3.861475e+03 0.0 0.0 9.0
22  1 1 2   0   0  1.065067e+03 -9.274846e+02 -3.389131e+03  3.671621e+03 0.0 0.0 9.0
 2  1 1 2 103   0 -1.065067e+03  9.274846e+02  1.174942e+03  1.837140e+03 0.0022 0.0 9.0
#pdf 2 21 2.534287e-01 5.940731e-01 5000.0 3.090100e-01 3.062628e-02
</event>
<event>
4 7 1.0 5000.0 7.905138e-03 7.739137e-02
21 -1 0 0 103 101  0.000000e+00  0.000000e+00  3.970518e+03  3.970518e+03 0.0 0.0 9.0
 2 -1 0 0 101   0  0.000000e+00  0.000000e+00 -1.528955e+03  1.528955e+03 0.0 0.0 9.0
 2  1 1 2 103   0  8.525431e+02 -1.105735e+03  3.486392e+03  3.755584e+03 0.0022 0.0 9.0
22  1 1 2   0   0 -8.525431e+02  1.105735e+03 -1.044830e+03  1.743889e+03 0.0 0.0 9.0
#pdf 21 2 6.108489e-01 2.352239e-01 5000.0 5.386599e-04 8.024786e-02
</event>
<event>
4 7 1.0 5000.0 7.905138e-03 7.739137e-02
 2 -1 0 0 101   0  0.000000e+00  0.000000e+00  4.633088e+03  4.633088e+03 0.0 0.0 9.0
21 -1 0 0 103 101  0.000000e+00  0.000000e+00 -1.390452e+03  1.390452e+03 0.0 0.0 9.0
22  1 1 2   0   0 -3.220759e+02  1.586547e+03 -6.982631e+02  1.763076e+03 0.0 0.0 9.0
 2  1 1 2 103   0  3.220759e+02 -1.586547e+03  3.940899e+03  4.260464e+03 0.0022 0.0 9.0
#pdf 2 21 7.127827e-01 2.139156e-01 5000.0 7.491695e-03 3.627800e-01
</event>
<event>
4 7 1.0 5000.0 7.905138e-03 7.739137e-02
21 -1 0 0 103 101  0.000000e+00  0.000000e+00  1.127055e+03  1.127055e+03 0.0 0.0 9.0
 2 -1 0 0 101   0  0.000000e+00  0.000000e+00 -4.723718e+03  4.723718e+03 0.0 0.0 9.0
 2  1 1 2 103   0 -7.445743e+02 -1.979833e+03 -6.295952e+02  2.206926e+03 0.0022 0.0 9.0
22  1 1 2   0   0  7.445743e+02  1.979833e+03 -2.967068e+03  3.643847e+03 0.0 0.0 9.0
#pdf 21 2 1.733930e-01 7.267258e-01 5000.0 1.792515e-01 6.207065e-05
</event>
<event>
4 7 1.0 5000.0 7.905138e-03 7.739137e-02
 2 -1 0 0 101   0  0.000000e+00  0.000000e+00  1.828703e+03  1.828703e+03 0.0 0.0 9.0
21 -1 0 0 103 101  0.000000e+00  0.000000e+00 -3.453708e+03  3.453708e+03 0.0 0.0 9.0
 2  1 1 2 103   0 -9.302928e+02 -7.552982e+02  1.509126e+03  1.927014e+03 0.0022 0.0 9.0
22  1 1 2   0   0  9.302928e+02  7.552982e+02 -3.134130e+03  3.355398e+03 0.0 0.0 9.0
#pdf 2 21 2.813390e-01 5.313397e-01 5000.0 2.725646e-01 5.451885e-02
</event>
<event>
4 7 1.0 5000.0 7.905138e-03 7.739137e-02
21 -1 0 0 103 101  0.000000e+00  0.000000e+00  2.341326e+03  2.341326e+03 0.0 0.0 9.0
 2 -1 0 0 101   0  0.000000e+00  0.000000e+00 -2.721881e+03  2.721881e+03 0.0 0.0 9.0
22  1 1 2   0   0  1.544393e+03 -1.294434e+03 -1.715151e+03  2.646214e+03 0.0 0.0 9.0
 2  1 1 2 103   0 -1.544393e+03  1.294434e+03  1.334595e+03  2.416993e+03 0.0022 0.0 9.0
#pdf 21 2 3.602039e-01 4.187510e-01 5000.0 1.720548e-02 8.260784e-03
</event>
<event>
4 7 1.0 5000.0 7.905138e-03 7.739137e-02
21 -1 0 0 103 101  0.000000e+00  0.000000e+00  1.535313e+03  1.535313e+03 0.0 0.0 9.0
 2 -1 0 0 101   0  0.000000e+00  0.000000e+00 -4.155720e+03  4.155720e+03 0.0 0.0 9.0
 2  1 1 2 103   0  1.649213e+03 -1.409292e+03 -2.767873e+03  3.516693e+03 0.0022 0.0 9.0
22  1 1 2   0   0 -1.649213e+03  1.409292e+03  1.474656e+02  2.174340e+03 0.0 0.0 9.0
#pdf 21 2 2.362020e-01 6.393415e-01 5000.0 7.928011e-02 3.338274e-04
</event>
<event>
4 7 1.0 5000.0 7.905138e-03 7.739137e-02
21 -1 0 0 103 101  0.000000e+00  0.000000e+00  2.929286e+03  2.929286e+03 0.0 0.0 9.0
 2 -1 0 0 101   0  0.000000e+00  0.000000e+00 -2.079459e+03  2.079459e+03 0.0 0.0 9.0
 2  1 1 2 103   0  1.163368e+03 -1.607532e+03 -1.064241e+03  2.251709e+03 0.0022 0.0 9.0
22  1 1 2   0   0 -1.163368e+03  1.607532e+03  1.914069e+03  2.757035e+03 0.0 0.0 9.0
#pdf 21 2 4.506594e-01 3.199167e-01 5000.0 5.470544e-03 2.822168e-02
</event>
<event>
4 7 1.0 5000.0 7.905138e-03 7.739137e-02
 2 -1 0 0 101   0  0.000000e+00  0.000000e+00  2.495511e+03  2.495511e+03 0.0 0.0 9.0
21 -1 0 0 103 101  0.000000e+00  0.000000e+00 -2.463618e+03  2.463618e+03 0.0 0.0 9.0
 2  1 1 2 103   0 -1.333895e+03 -1.352851e+03 -1.577355e+03  2.469318e+03 0.0022 0.0 9.0
22  1 1 2   0   0  1.333895e+03  1.352851e+03  1.609248e+03  2.489811e+03 0.0 0.0 9.0
#pdf 2 21 3.839247e-01 3.790182e-01 5000.0 1.574047e-01 1.621100e-01
</event>
<event>
4 7 1.0 5000.0 7.905138e-03 7.739137e-02
 2 -1 0 0 101   0  0.000000e+00  0.000000e+00  1.768580e+03  1.768580e+03 0.0 0.0 9.0
21 -1 0 0 103 101  0.000000e+00  0.000000e+00 -3.430886e+03  3.430886e+03 0.0 0.0 9.0
22  1 1 2   0   0 -2.087842e+03 -4.199139e+02 -2.137616e+03  3.017418e+03 0.0 0.0 9.0
 2  1 1 2 103   0  2.087842e+03  4.199139e+02  4.753093e+02  2.182047e+03 0.0022 0.0 9.0
#pdf 2 21 2.720892e-01 5.278286e-01 5000.0 2.844693e-01 5.616234e-02
</event>
<event>
4 7 1.0 5000.0 7.905138e-03 7.739137e-02
21 -1 0 0 103 101  0.000000e+00  0.000000e+00  1.550491e+03  1.550491e+03 0.0 0.0 9.0
 2 -1 0 0 101   0  0.000000e+00  0.000000e+00 -4.011407e+03  4.011407e+03 0.0 0.0 9.0
22  1 1 2   0   0 -2.328319e+03 -5.967186e+02 -1.972231e+03  3.109154e+03 0.0 0.0 9.0
 2  1 1 2 103   0  2.328319e+03  5.967186e+02 -4.886850e+02  2.452745e+03 0.0022 0.0 9.0
#pdf 21 2 2.385371e-01 6.171396e-01 5000.0 7.701193e-02 4.858319e-04
</event>
<event>
4 7 1.0 5000.0 7.905138e-03 7.739137e-02
 2 -1 0 0 101   0  0.000000e+00  0.000000e+00  1.752138e+03  1.752138e+03 0.0 0.0 9.0
21 -1 0 0 103 101  0.000000e+00  0.000000e+00 -3.469061e+03  3.469061e+03 0.0 0.0 9.0
22  1 1 2   0   0 -9.651641e+02  2.625269e+02  1.527637e+03  1.825962e+03 0.0 0.0 9.0
 2  1 1 2 103   0  9.651641e+02 -2.625269e+02 -3.244561e+03  3.395237e+03 0.0022 0.0 9.0
#pdf 2 21 2.695597e-01 5.337017e-01 5000.0 2.877617e-01 5.343025e-02
</event>
<event>
4 7 1.0 5000.0 7.905138e-03 7.739137e-02
 2 -1 0 0 101   0  0.000000e+00  0.000000e+00  1.257704e+03  1.257704e+03 0.0 0.0 9.0
21 -1 0 0 103 101  0.000000e+00  0.000000e+00 -3.980406e+03  3.980406e+03 0.0 0.0 9.0
 2  1 1 2 103   0 -1.642127e+03 -1.141944e+03 -2.535153e+03  3.229182e+03 0.0022 0.0 9.0
22  1 1 2   0   0  1.642127e+03  1.141944e+03 -1.875492e+02  2.008928e+03 0.0 0.0 9.0
#pdf 2 21 1.934929e-01 6.123702e-01 5000.0 3.910328e-01 2.542139e-02
</event>
<event>
4 7 1.0 5000.0 7.905138e-03 7.739137e-02
 2 -1 0 0 101   0  0.000000e+00  0.000000e+00  3.060518e+03  3.060518e+03 0.0 0.0 9.0
21 -1 0 0 103 101  0.000000e+00  0.000000e+00 -2.053035e+03  2.053035e+03 0.0 0.0 9.0
 2  1 1 2 103   0 -7.778376e+02  1.913411e+02  2.926457e+03  3.034105e+03 0.0022 0.0 9.0
22  1 1 2   0   0  7.778376e+02 -1.913411e+02 -1.918973e+03  2.079448e+03 0.0 0.0 9.0
#pdf 2 21 4.708490e-01 3.158515e-01 5000.0 8.800347e-02 2.301132e-01
</event>
<event>
4 7 1.0 5000.0 7.905138e-03 7.739137e-02
21 -1 0 0 103 101  0.000000e+00  0.000000e+00  2.278524e+03  2.278524e+03 0.0 0.0 9.0
 2 -1 0 0 101   0  0.000000e+00  0.000000e+00 -2.505389e+03  2.505389e+03 0.0 0.0 9.0
22  1 1 2   0   0  9.562028e+02  1.773328e+03 -1.399237e+03  2.452933e+03 0.0 0.0 9.0
 2  1 1 2 103   0 -9.562028e+02 -1.773328e+03  1.172371e+03  2.330980e+03 0.0022 0.0 9.0
#pdf 21 2 3.505421e-01 3.854445e-01 5000.0 1.938968e-02 1.258610e-02
</event>
<event>
4 7 1.0 5000.0 7.905138e-03 7.739137e-02
21 -1 0 0 103 101  0.000000e+00  0.000000e+00  1.875055e+03  1.875055e+03 0.0 0.0 9.0
 2 -1 0 0 101   0  0.000000e+00  0.000000e+00 -3.449561e+03  3.449561e+03 0.0 0.0 9.0
22  1 1 2   0   0 -2.184630e+03  1.150595e+03 -1.490921e+02  2.473602e+03 0.0 0.0 9.0
 2  1 1 2 103   0  2.184630e+03 -1.150595e+03 -1.425414e+03  2.851014e+03 0.0022 0.0 9.0
#pdf 21 2 2.884700e-01 5.307017e-01 5000.0 4.150056e-02 1.831579e-03
</event>
<event>
4 7 1.0 5000.0 7.905138e-03 7.739137e-02
 2 -1 0 0 101   0  0.000000e+00  0.000000e+00  1.612391e+03  1.612391e+03 0.0 0.0 9.0
21 -1 0 0 103 101  0.000000e+00  0.000000e+00 -2.981066e+03  2.981066e+03 0.0 0.0 9.0
 2  1 1 2 103   0 -1.246362e+03 -1.332239e+03 -1.958074e+03  2.676254e+03 0.0022 0.0 9.0
22  1 1 2   0   0  1.246362e+03  1.332239e+03  5.893989e+02  1.917204e+03 0.0 0.0 9.0
#pdf 2 21 2.480602e-01 4.586256e-01 5000.0 3.162161e-01 9.618046e-02
</event>
<event>
4 7 1.0 5000.0 7.905138e-03 7.739137e-02
21 -1 0 0 103 101  0.000000e+00  0.000000e+00  2.164036e+03  2.164036e+03 0.0 0.0 9.0
 2 -1 0 0 101   0  0.000000e+00  0.000000e+00 -2.957063e+03  2.957063e+03 0.0 0.0 9.0
 2  1 1 2 103   0  1.078722e+03 -1.868847e+03  9.398190e+02  2.353612e+03 0.0022 0.0 9.0
22  1 1 2   0   0 -1.078722e+03  1.868847e+03 -1.732846e+03  2.767487e+03 0.0 0.0 9.0
#pdf 21 2 3.329286e-01 4.549328e-01 5000.0 2.406653e-02 5.172761e-03
</event>
<event>
4 7 1.0 5000.0 7.905138e-03 7.739137e-02
21 -1 0 0 103 101  0.000000e+00  0.000000e+00  3.043765e+03  3.043765e+03 0.0 0.0 9.0
 2 -1 0 0 101   0  0.000000e+00  0.000000e+00 -2.195117e+03  2.195117e+03 0.0 0.0 9.0
 2  1 1 2 103   0  1.484001e+03  1.990117e+03  1.154099e+03  2.737658e+03 0.0022 0.0 9.0
22  1 1 2   0   0 -1.484001e+03 -1.990117e+03 -3.054512e+02  2.501225e+03 0.0 0.0 9.0
#pdf 21 2 4.682716e-01 3.377103e-01 5000.0 4.333348e-03 2.269137e-02
</event>
<event>
4 7 1.0 5000.0 7.905138e-03 7.739137e-02
 2 -1 0 0 101   0  0.000000e+00  0.000000e+00  4.099726e+03  4.099726e+03 0.0 0.0 9.0
21 -1 0 0 103 101  0.000000e+00  0.000000e+00 -1.518696e+03  1.518696e+03 0.0 0.0 9.0
22  1 1 2   0   0 -1.938298e+03  5.486526e+02 -3.672516e+02  2.047655e+03 0.0 0.0 9.0
 2  1 1 2 103   0  1.938298e+03 -5.486526e+02  2.948281e+03  3.570767e+03 0.0022 0.0 9.0
#pdf 2 21 6.307271e-01 2.336456e-01 5000.0 2.087950e-02 3.357315e-01
</event>
<event>
4 7 1.0 5000.0 7.905138e-03 7.739137e-02
21 -1 0 0 103 101  0.000000e+00  0.000000e+00  3.071922e+03  3.071922e+03 0.0 0.0 9.0
 2 -1 0 0 101   0  0.000000e+00  0.000000e+00 -1.982011e+03  1.982011e+03 0.0 0.0 9.0
22  1 1 2   0   0 -1.344073e+03  1.492071e+03 -9.233920e+02  2.210308e+03 0.0 0.0 9.0
 2  1 1 2 103   0  1.344073e+03 -1.492071e+03  2.013304e+03  2.843625e+03 0.0022 0.0 9.0
#pdf 21 2 4.726034e-01 3.049247e-01 5000.0 4.090077e-03 3.394309e-02
</event>
<event>
4 7 1.0 5000.0 7.905138e-03 7.739137e-02
21 -1 0 0 103 101  0.000000e+00  0.000000e+00  3.695966e+03  3.695966e+03 0.0 0.0 9.0
 2 -1 0 0 101   0  0.000000e+00  0.000000e+00 -1.649464e+03  1.649464e+03 0.0 0.0 9.0
 2  1 1 2 103   0 -1.161374e+03  2.166406e+03  1.275396e+03  2.769249e+03 0.0022 0.0 9.0
22  1 1 2   0   0  1.161374e+03 -2.166406e+03  7.711052e+02  2.576181e+03 0.0 0.0 9.0
#pdf 21 2 5.686101e-01 2.537637e-01 5000.0 1.047017e-03 6.369400e-02
</event>
<event>
4 7 1.0 5000.0 7.905138e-03 7.739137e-02
 2 -1 0 0 101   0  0.000000e+00  0.000000e+00  3.773112e+03  3.773112e+03 0.0 0.0 9.0
21 -1 0 0 103 101  0.000000e+00  0.000000e+00 -1.625634e+03  1.625634e+03 0.0 0.0 9.0
22  1 1 2   0   0 -2.146120e+03 -1.198540e+02 -2.671515e+02  2.166002e+03 0.0 0.0 9.0
 2  1 1 2 103   0  2.146120e+03  1.198540e+02  2.414630e+03  3.232744e+03 0.0022 0.0 9.0
#pdf 2 21 5.804788e-01 2.500975e-01 5000.0 3.497469e-02 3.134689e-01
</event>
<event>
4 7 1.0 5000.0 7.905138e-03 7.739137e-02
21 -1 0 0 103 101  0.000000e+00  0.000000e+00  1.322873e+03  1.322873e+03 0.0 0.0 9.0
 2 -1 0 0 101   0  0.000000e+00  0.000000e+00 -4.696683e+03  4.696683e+03 0.0 0.0 9.0
22  1 1 2   0   0  5.446539e+02  5.887601e+02 -4.536615e+03  4.606969e+03 0.0 0.0 9.0
 2  1 1 2 103   0 -5.446539e+02 -5.887601e+02  1.162805e+03  1.412587e+03 0.0022 0.0 9.0
#pdf 21 2 2.035189e-01 7.225667e-01 5000.0 1.201418e-01 6.785075e-05
</event>
<event>
4 7 1.0 5000.0 7.905138e-03 7.739137e-02
21 -1 0 0 103 101  0.000000e+00  0.000000e+00  2.863856e+03  2.863856e+03 0.0 0.0 9.0
 2 -1 0 0 101   0  0.000000e+00  0.000000e+00 -2.102427e+03  2.102427e+03 0.0 0.0 9.0
 2  1 1 2 103   0  2.394520e+03 -5.276565e+02  2.852460e+02  2.468504e+03 0.0022 0.0 9.0
22  1 1 2   0   0 -2.394520e+03  5.276565e+02  4.761838e+02  2.497779e+03 0.0 0.0 9.0
#pdf 21 2 4.405933e-01 3.234502e-01 5000.0 6.242135e-03 2.702705e-02
</event>
<event>
4 7 1.0 5000.0 7.905138e-03 7.739137e-02
 2 -1 0 0 101   0  0.000000e+00  0.000000e+00  2.566423e+03  2.566423e+03 0.0 0.0 9.0
21 -1 0 0 103 101  0.000000e+00  0.000000e+00 -2.422890e+03  2.422890e+03 0.0 0.0 9.0
 2  1 1 2 103   0 -2.241391e+03 -2.442299e+02 -9.938872e+02  2.464000e+03 0.0022 0.0 9.0
22  1 1 2   0   0  2.241391e+03  2.442299e+02  1.137420e+03  2.525313e+03 0.0 0.0 9.0
#pdf 2 21 3.948343e-01 3.727523e-01 5000.0 1.472467e-01 1.682321e-01
</event>
<event>
4 7 1.0 5000.0 7.905138e-03 7.739137e-02
21 -1 0 0 103 101  0.000000e+00  0.000000e+00  3.199881e+03  3.199881e+03 0.0 0.0 9.0
 2 -1 0 0 101   0  0.000000e+00  0.000000e+00 -1.928309e+03  1.928309e+03 0.0 0.0 9.0
22  1 1 2   0   0 -1.235968e+03 -2.097376e+03  1.145420e+03  2.690463e+03 0.0 0.0 9.0
 2  1 1 2 103   0  1.235968e+03  2.097376e+03  1.261513e+02  2.437728e+03 0.0022 0.0 9.0
#pdf 21 2 4.922894e-01 2.966630e-01 5000.0 3.133276e-03 3.755371e-02
</event>
<event>
4 7 1.0 5000.0 7.905138e-03 7.739137e-02
21 -1 0 0 103 101  0.000000e+00  0.000000e+00  1.807921e+03  1.807921e+03 0.0 0.0 9.0
 2 -1 0 0 101   0  0.000000e+00  0.000000e+00 -3.468527e+03  3.468527e+03 0.0 0.0 9.0
 2  1 1 2 103   0 -1.942862e+03 -1.274306e+03  1.536404e+02  2.328557e+03 0.0022 0.0 9.0
22  1 1 2   0   0  1.942862e+03  1.274306e+03 -1.814246e+03  2.947891e+03 0.0 0.0 9.0
#pdf 21 2 2.781417e-01 5.336195e-01 5000.0 4.708984e-02 1.756051e-03
</event>
<event>
4 7 1.0 5000.0 7.905138e-03 7.739137e-02
21 -1 0 0 103 101  0.000000e+00  0.000000e+00  3.738236e+03  3.738236e+03 0.0 0.0 9.0
 2 -1 0 0 101   0  0.000000e+00  0.000000e+00 -1.737369e+03  1.737369e+03 0.0 0.0 9.0
 2  1 1 2 103   0  2.027615e+03  8.682713e+02  2.371821e+03  3.238928e+03 0.0022 0.0 9.0
22  1 1 2   0   0 -2.027615e+03 -8.682713e+02 -3.709543e+02  2.236677e+03 0.0 0.0 9.0
#pdf 21 2 5.751132e-01 2.672876e-01 5000.0 9.473804e-04 5.381350e-02
</event>
<event>
4 7 1.0 5000.0 7.905138e-03 7.739137e-02
21 -1 0 0 103 101  0.000000e+00  0.000000e+00  1.519038e+03  1.519038e+03 0.0 0.0 9.0
 2 -1 0 0 101   0  0.000000e+00  0.000000e+00 -4.122572e+03  4.122572e+03 0.0 0.0 9.0
 2  1 1 2 103   0 -1.490509e+03 -1.968004e+03 -8.401810e+02  2.607788e+03 0.0022 0.0 9.0
22  1 1 2   0   0  1.490509e+03  1.968004e+03 -1.763353e+03  3.033821e+03 0.0 0.0 9.0
#pdf 21 2 2.336981e-01 6.342418e-01 5000.0 8.178150e-02 3.643298e-04
</event>
<event>
4 7 1.0 5000.0 7.905138e-03 7.739137e-02
21 -1 0 0 103 101  0.000000e+00  0.000000e+00  1.661355e+03  1.661355e+03 0.0 0.0 9.0
 2 -1 0 0 101   0  0.000000e+00  0.000000e+00 -3.803029e+03  3.803029e+03 0.0 0.0 9.0
22  1 1 2   0   0 -1.418736e+03 -2.450317e+02 -3.310439e+03  3.609967e+03 0.0 0.0 9.0
 2  1 1 2 103   0  1.418736e+03  2.450317e+02  1.168765e+03  1.854418e+03 0.0022 0.0 9.0
#pdf 21 2 2.555931e-01 5.850815e-01 5000.0 6.225378e-02 8.123419e-04
</event>
<event>
4 7 1.0 5000.0 7.905138e-03 7.739137e-02
 2 -1 0 0 101   0  0.000000e+00  0.000000e+00  3.932115e+03  3.932115e+03 0.0 0.0 9.0
21 -1 0 0 103 101  0.000000e+00  0.000000e+00 -1.592014e+03  1.592014e+03 0.0 0.0 9.0
 2  1 1 2 103   0  1.759952e+03 -7.325478e+02  2.958961e+03  3.519873e+03 0.0022 0.0 9.0
22  1 1 2   0   0 -1.759952e+03  7.325478e+02 -6.188601e+02  2.004257e+03 0.0 0.0 9.0
#pdf 2 21 6.049408e-01 2.449253e-01 5000.0 2.745096e-02 3.204504e-01
</event>
<event>
4 7 1.0 5000.0 7.905138e-03 7.739137e-02
 2 -1 0 0 101   0  0.000000e+00  0.000000e+00  2.446212e+03  2.446212e+03 0.0 0.0 9.0
21 -1 0 0 103 101  0.000000e+00  0.000000e+00 -3.092941e+03  3.092941e+03 0.0 0.0 9.0
 2  1 1 2 103   0  3.430055e+02 -7.487803e+02  2.319145e+03  2.461048e+03 0.0022 0.0 9.0
22  1 1 2   0   0 -3.430055e+02  7.487803e+02 -2.965874e+03  3.078106e+03 0.0 0.0 9.0
#pdf 2 21 3.763403e-01 4.758371e-01 5000.0 1.647115e-01 8.480426e-02
</event>
<event>
4 7 1.0 5000.0 7.905138e-03 7.739137e-02
 2 -1 0 0 101   0  0.000000e+00  0.000000e+00  2.000426e+03  2.000426e+03 0.0 0.0 9.0
21 -1 0 0 103 101  0.000000e+00  0.000000e+00 -3.116659e+03  3.116659e+03 0.0 0.0 9.0
22  1 1 2   0   0 -4.949309e+02  1.839516e+03 -2.212222e+03  2.919366e+03 0.0 0.0 9.0
 2  1 1 2 103   0  4.949309e+02 -1.839516e+03  1.095989e+03  2.197719e+03 0.0022 0.0 9.0
#pdf 2 21 3.077579e-01 4.794860e-01 5000.0 2.397567e-01 8.251605e-02
</event>
<event>
4 7 1.0 5000.0 7.905138e-03 7.739137e-02
21 -1 0 0 103 101  0.000000e+00  0.000000e+00  1.488090e+03  1.488090e+03 0.0 0.0 9.0
 2 -1 0 0 101   0  0.000000e+00  0.000000e+00 -4.131725e+03  4.131725e+03 0.0 0.0 9.0
22  1 1 2   0   0  1.787264e+03  1.256171e+03 -2.651160e+03  3.435248e+03 0.0 0.0 9.0
 2  1 1 2 103   0 -1.787264e+03 -1.256171e+03  7.524481e+00  2.184568e+03 0.0022 0.0 9.0
#pdf 21 2 2.289369e-01 6.356501e-01 5000.0 8.679245e-02 3.556720e-04
</event>
<event>
4 7 1.0 5000.0 7.905138e-03 7.739137e-02
21 -1 0 0 103 101  0.000000e+00  0.000000e+00  3.333037e+03  3.333037e+03 0.0 0.0 9.0
 2 -1 0 0 101   0  0.000000e+00  0.000000e+00 -1.865354e+03  1.865354e+03 0.0 0.0 9.0
22  1 1 2   0   0  2.200862e+03  1.072666e+03  2.417084e+02  2.460249e+03 0.0 0.0 9.0
 2  1 1 2 103   0 -2.200862e+03 -1.072666e+03  1.225975e+03  2.738141e+03 0.0022 0.0 9.0
#pdf 21 2 5.127749e-01 2.869775e-01 5000.0 2.360298e-03 4.225734e-02
</event>
<event>
4 7 1.0 5000.0 7.905138e-03 7.739137e-02
21 -1 0 0 103 101  0.000000e+00  0.000000e+00  2.968532e+03  2.968532e+03 0.0 0.0 9.0
 2 -1 0 0 101   0  0.000000e+00  0.000000e+00 -2.101801e+03  2.101801e+03 0.0 0.0 9.0
 2  1 1 2 103   0 -2.693025e+02 -2.406825e+03  1.054003e+03  2.641259e+03 0.0022 0.0 9.0
22  1 1 2   0   0  2.693025e+02  2.406825e+03 -1.872728e+02  2.429074e+03 0.0 0.0 9.0
#pdf 21 2 4.566972e-01 3.233540e-01 5000.0 5.053050e-03 2.705887e-02
</event>
<event>
4 7 1.0 5000.0 7.905138e-03 7.739137e-02
21 -1 0 0 103 101  0.000000e+00  0.000000e+00  2.077382e+03  2.077382e+03 0.0 0.0 9.0
 2 -1 0 0 101   0  0.000000e+00  0.000000e+00 -2.399048e+03  2.399048e+03 0.0 0.0 9.0
22  1 1 2   0   0 -1.534289e+03  2.434740e+02  1.446573e+03  2.122710e+03 0.0 0.0 9.0
 2  1 1 2 103   0  1.534289e+03 -2.434740e+02 -1.768239e+03  2.353719e+03 0.0022 0.0 9.0
#pdf 21 2 3.195972e-01 3.690843e-01 5000.0 2.833241e-02 1.541074e-02
</event>
<event>
4 7 1.0 5000.0 7.905138e-03 7.739137e-02
21 -1 0 0 103 101  0.000000e+00  0.000000e+00  2.703635e+03  2.703635e+03 0.0 0.0 9.0
 2 -1 0 0 101   0  0.000000e+00  0.000000e+00 -2.263722e+03  2.263722e+03 0.0 0.0 9.0
 2  1 1 2 103   0  2.418119e+03 -1.047194e+02  7.338498e+02  2.529189e+03 0.0022 0.0 9.0
22  1 1 2   0   0 -2.418119e+03  1.047194e+02 -2.939360e+02  2.438168e+03 0.0 0.0 9.0
#pdf 21 2 4.159439e-01 3.482649e-01 5000.0 8.561284e-03 1.994079e-02
</event>
<event>
4 7 1.0 5000.0 7.905138e-03 7.739137e-02
 2 -1 0 0 101   0  0.000000e+00  0.000000e+00  2.221357e+03  2.221357e+03 0.0 0.0 9.0
21 -1 0 0 103 101  0.000000e+00  0.000000e+00 -2.678838e+03  2.678838e+03 0.0 0.0 9.0
 2  1 1 2 103   0 -1.815931e+03 -3.556587e+02 -1.825228e+03  2.599145e+03 0.0022 0.0 9.0
22  1 1 2   0   0  1.815931e+03  3.556587e+02  1.367747e+03  2.301050e+03 0.0 0.0 9.0
#pdf 2 21 3.417472e-01 4.121289e-01 5000.0 2.006121e-01 1.319858e-01
</event>
<event>
4 7 1.0 5000.0 7.905138e-03 7.739137e-02
21 -1 0 0 103 101  0.000000e+00  0.000000e+00  1.655577e+03  1.655577e+03 0.0 0.0 9.0
 2 -1 0 0 101   0  0.000000e+00  0.000000e+00 -3.801568e+03  3.801568e+03 0.0 0.0 9.0
22  1 1 2   0   0  1.989686e+03  7.044435e+02 -2.547800e+03  3.308531e+03 0.0 0.0 9.0
 2  1 1 2 103   0 -1.989686e+03 -7.044435e+02  4.018084e+02  2.148614e+03 0.0022 0.0 9.0
#pdf 21 2 2.547041e-01 5.848566e-01 5000.0 6.295021e-02 8.151867e-04
</event>
<event>
4 7 1.0 5000.0 7.905138e-03 7.739137e-02
 2 -1 0 0 101   0  0.000000e+00  0.000000e+00  2.056774e+03  2.056774e+03 0.0 0.0 9.0
21 -1 0 0 103 101  0.000000e+00  0.000000e+00 -3.097563e+03  3.097563e+03 0.0 0.0 9.0
22  1 1 2   0   0 -4.585908e+02 -1.234290e+03  1.678315e+03  2.133194e+03 0.0 0.0 9.0
 2  1 1 2 103   0  4.585908e+02  1.234290e+03 -2.719104e+03  3.021143e+03 0.0022 0.0 9.0
#pdf 2 21 3.164267e-01 4.765482e-01 5000.0 2.294356e-01 8.435483e-02
</event>
<event>
4 7 1.0 5000.0 7.905138e-03 7.739137e-02
 2 -1 0 0 101   0  0.000000e+00  0.000000e+00  1.952219e+03  1.952219e+03 0.0 0.0 9.0
21 -1 0 0 103 101  0.000000e+00  0.000000e+00 -3.251746e+03  3.251746e+03 0.0 0.0 9.0
22  1 1 2   0   0  1.210298e+03 -2.209438e+03 -6.921477e+02  2.612567e+03 0.0 0.0 9.0
 2  1 1 2 103   0 -1.210298e+03  2.209438e+03 -6.073784e+02  2.591398e+03 0.0022 0.0 9.0
#pdf 2 21 3.003415e-01 5.002686e-01 5000.0 2.487837e-01 7.030536e-02
</event>
<event>
4 7 1.0 5000.0 7.905138e-03 7.739137e-02
21 -1 0 0 103 101  0.000000e+00  0.000000e+00  3.530389e+03  3.530389e+03 0.0 0.0 9.0
 2 -1 0 0 101   0  0.000000e+00  0.000000e+00 -1.631834e+03  1.631834e+03 0.0 0.0 9.0
 2  1 1 2 103   0 -1.502583e+03 -1.742555e+03  1.683964e+03  2.851313e+03 0.0022 0.0 9.0
22  1 1 2   0   0  1.502583e+03  1.742555e+03  2.145905e+02  2.310909e+03 0.0 0.0 9.0
#pdf 21 2 5.431367e-01 2.510514e-01 5000.0 1.528887e-03 6.587683e-02
</event>
<event>
4 7 1.0 5000.0 7.905138e-03 7.739137e-02
21 -1 0 0 103 101  0.000000e+00  0.000000e+00  3.222251e+03  3.222251e+03 0.0 0.0 9.0
 2 -1 0 0 101   0  0.000000e+00  0.000000e+00 -2.006195e+03  2.006195e+03 0.0 0.0 9.0
 2  1 1 2 103   0  9.410939e+02  2.193858e+03 -2.917431e+02  2.404950e+03 0.0022 0.0 9.0
22  1 1 2   0   0 -9.410939e+02 -2.193858e+03  1.507799e+03  2.823496e+03 0.0 0.0 9.0
#pdf 21 2 4.957309e-01 3.086455e-01 5000.0 2.989293e-03 3.243314e-02
</event>
<event>
4 7 1.0 5000.0 7.905138e-03 7.739137e-02
21 -1 0 0 103 101  0.000000e+00  0.000000e+00  3.622096e+03  3.622096e+03 0.0 0.0 9.0
 2 -1 0 0 101   0  0.000000e+00  0.000000e+00 -1.595407e+03  1.595407e+03 0.0 0.0 9.0
22  1 1 2   0   0  6.751196e+02 -5.852599e+02  3.435205e+03  3.549500e+03 0.0 0.0 9.0
 2  1 1 2 103   0 -6.751196e+02  5.852599e+02 -1.408517e+03  1.668003e+03 0.0022 0.0 9.0
#pdf 21 2 5.572455e-01 2.454473e-01 5000.0 1.242955e-03 7.054983e-02
</event>
<event>
4 7 1.0 5000.0 7.905138e-03 7.739137e-02
21 -1 0 0 103 101  0.000000e+00  0.000000e+00  1.940299e+03  1.940299e+03 0.0 0.0 9.0
 2 -1 0 0 101   0  0.000000e+00  0.000000e+00 -3.043158e+03  3.043158e+03 0.0 0.0 9.0
22  1 1 2   0   0 -4.591405e+02 -2.110160e+02 -2.988687e+03  3.031103e+03 0.0 0.0 9.0
 2  1 1 2 103   0  4.591405e+02  2.110160e+02  1.885828e+03  1.952354e+03 0.0022 0.0 9.0
#pdf 21 2 2.985075e-01 4.681781e-01 5000.0 3.669767e-02 4.338733e-03
</event>
<event>
4 7 1.0 5000.0 7.905138e-03 7.739137e-02
21 -1 0 0 103 101  0.000000e+00  0.000000e+00  1.940187e+03  1.940187e+03 0.0 0.0 9.0
 2 -1 0 0 101   0  0.000000e+00  0.000000e+00 -3.249791e+03  3.249791e+03 0.0 0.0 9.0
22  1 1 2   0   0 -2.584916e+02 -1.099543e+03 -2.972430e+03  3.179804e+03 0.0 0.0 9.0
 2  1 1 2 103   0  2.584916e+02  1.099543e+03  1.662826e+03  2.010175e+03 0.0022 0.0 9.0
#pdf 21 2 2.984904e-01 4.999679e-01 5000.0 3.670559e-02 2.819606e-03
</event>
<event>
4 7 1.0 5000.0 7.905138e-03 7.739137e-02
21 -1 0 0 103 101  0.000000e+00  0.000000e+00  1.802402e+03  1.802402e+03 0.0 0.0 9.0
 2 -1 0 0 101   0  0.000000e+00  0.000000e+00 -3.198237e+03  3.198237e+03 0.0 0.0 9.0
22  1 1 2   0   0 -9.356325e+02 -2.054405e+03 -1.549394e+03  2.737994e+03 0.0 0.0 9.0
 2  1 1 2 103   0  9.356325e+02  2.054405e+03  1.535589e+02  2.262646e+03 0.0022 0.0 9.0
#pdf 21 2 2.772926e-01 4.920365e-01 5000.0 4.758408e-02 3.144091e-03
</event>
<event>
4 7 1.0 5000.0 7.905138e-03 7.739137e-02
21 -1 0 0 103 101  0.000000e+00  0.000000e+00  1.641071e+03  1.641071e+03 0.0 0.0 9.0
 2 -1 0 0 101   0  0.000000e+00  0.000000e+00 -3.855721e+03  3.855721e+03 0.0 0.0 9.0
22  1 1 2   0   0  1.878521e+03 -9.887678e+02  3.670859e+02  2.154357e+03 0.0 0.0 9.0
 2  1 1 2 103   0 -1.878521e+03  9.887678e+02 -2.581736e+03  3.342434e+03 0.0022 0.0 9.0
#pdf 21 2 2.524724e-01 5.931879e-01 5000.0 6.472658e-02 7.150577e-04
</event>
<event>
4 7 1.0 5000.0 7.905138e-03 7.739137e-02
21 -1 0 0 103 101  0.000000e+00  0.000000e+00  2.183633e+03  2.183633e+03 0.0 0.0 9.0
 2 -1 0 0 101   0  0.000000e+00  0.000000e+00 -2.321819e+03  2.321819e+03 0.0 0.0 9.0
 2  1 1 2 103   0  6.907914e+02  2.062102e+03  5.147430e+02  2.234819e+03 0.0022 0.0 9.0
22  1 1 2   0   0 -6.907914e+02 -2.062102e+03 -6.529290e+02  2.270633e+03 0.0 0.0 9.0
#pdf 21 2 3.359436e-01 3.572029e-01 5000.0 2.319037e-02 1.785075e-02
</event>
<event>
4 7 1.0 5000.0 7.905138e-03 7.739137e-02
 2 -1 0 0 101   0  0.000000e+00  0.000000e+00  3.408203e+03  3.408203e+03 0.0 0.0 9.0
21 -1 0 0 103 101  0.000000e+00  0.000000e+00 -1.603702e+03  1.603702e+03 0.0 0.0 9.0
22  1 1 2   0   0  1.198843e+03 -7.294295e+02  2.906547e+03  3.227585e+03 0.0 0.0 9.0
 2  1 1 2 103   0 -1.198843e+03  7.294295e+02 -1.102046e+03  1.784320e+03 0.0022 0.0 9.0
#pdf 2 21 5.243389e-01 2.467234e-01 5000.0 5.782800e-02 3.180284e-01
</event>
<event>
4 7 1.0 5000.0 7.905138e-03 7.739137e-02
21 -1 0 0 103 101  0.000000e+00  0.000000e+00  3.223440e+03  3.223440e+03 0.0 0.0 9.0
 2 -1 0 0 101   0  0.000000e+00  0.000000e+00 -1.944828e+03  1.944828e+03 0.0 0.0 9.0
 2  1 1 2 103   0  1.943821e+03  1.494174e+03  1.163579e+03  2.713838e+03 0.0022 0.0 9.0
22  1 1 2   0   0 -1.943821e+03 -1.494174e+03  1.150328e+02  2.454431e+03 0.0 0.0 9.0
#pdf 21 2 4.959139e-01 2.992043e-01 5000.0 2.981800e-03 3.637605e-02
</event>
<event>
4 7 1.0 5000.0 7.905138e-03 7.739137e-02
21 -1 0 0 103 101  0.000000e+00  0.000000e+00  3.094939e+03  3.094939e+03 0.0 0.0 9.0
 2 -1 0 0 101   0  0.000000e+00  0.000000e+00 -2.015601e+03  2.015601e+03 0.0 0.0 9.0
22  1 1 2   0   0 -1.193341e+03  4.825368e+02  2.729450e+03  3.017748e+03 0.0 0.0 9.0
 2  1 1 2 103   0  1.193341e+03 -4.825368e+02 -1.650112e+03  2.092792e+03 0.0022 0.0 9.0
#pdf 21 2 4.761444e-01 3.100925e-01 5000.0 3.900243e-03 3.185938e-02
</event>
<event>
4 7 1.0 5000.0 7.905138e-03 7.739137e-02
 2 -1 0 0 101   0  0.000000e+00  0.000000e+00  4.542033e+03  4.542033e+03 0.0 0.0 9.0
21 -1 0 0 103 101  0.000000e+00  0.000000e+00 -1.378360e+03  1.378360e+03 0.0 0.0 9.0
 2  1 1 2 103   0  2.491472e+02  1.679931e+03 -5.920421e+02  1.798543e+03 0.0022 0.0 9.0
22  1 1 2   0   0 -2.491472e+02 -1.679931e+03  3.755715e+03  4.121849e+03 0.0 0.0 9.0
#pdf 2 21 6.987743e-01 2.120553e-01 5000.0 9.101612e-03 3.653537e-01
</event>
<event>
4 7 1.0 5000.0 7.905138e-03 7.739137e-02
 2 -1 0 0 101   0  0.000000e+00  0.000000e+00  2.518852e+03  2.518852e+03 0.0 0.0 9.0
21 -1 0 0 103 101  0.000000e+00  0.000000e+00 -2.476714e+03  2.476714e+03 0.0 0.0 9.0
22  1 1 2   0   0 -5.777151e+01  1.910121e+03  1.629409e+03  2.511349e+03 0.0 0.0 9.0
 2  1 1 2 103   0  5.777151e+01 -1.910121e+03 -1.587271e+03  2.484216e+03 0.0022 0.0 9.0
#pdf 2 21 3.875157e-01 3.810329e-01 5000.0 1.540143e-01 1.601681e-01
</event>
<event>
4 7 1.0 5000.0 7.905138e-03 7.739137e-02
21 -1 0 0 103 101  0.000000e+00  0.000000e+00  1.999395e+03  1.999395e+03 0.0 0.0 9.0
 2 -1 0 0 101   0  0.000000e+00  0.000000e+00 -3.160512e+03  3.160512e+03 0.0 0.0 9.0
 2  1 1 2 103   0  5.442406e+02  1.853000e+01  1.938132e+03  2.013181e+03 0.0022 0.0 9.0
22  1 1 2   0   0 -5.442406e+02 -1.853000e+01 -3.099249e+03  3.146726e+03 0.0 0.0 9.0
#pdf 21 2 3.075992e-01 4.862327e-01 5000.0 3.285297e-02 3.402080e-03
</event>
<event>
4 7 1.0 5000.0 7.905138e-03 7.739137e-02
 2 -1 0 0 101   0  0.000000e+00  0.000000e+00  3.771181e+03  3.771181e+03 0.0 0.0 9.0
21 -1 0 0 103 101  0.000000e+00  0.000000e+00 -1.687096e+03  1.687096e+03 0.0 0.0 9.0
22  1 1 2   0   0 -1.919242e+03 -9.589756e+01 -7.258053e+02  2.054137e+03 0.0 0.0 9.0
 2  1 1 2 103   0  1.919242e+03  9.589756e+01  2.809890e+03  3.404140e+03 0.0022 0.0 9.0
#pdf 2 21 5.801816e-01 2.595532e-01 5000.0 3.507453e-02 3.008926e-01
</event>
<event>
4 7 1.0 5000.0 7.905138e-03 7.739137e-02
21 -1 0 0 103 101  0.000000e+00  0.000000e+00  2.180039e+03  2.180039e+03 0.0 0.0 9.0
 2 -1 0 0 101   0  0.000000e+00  0.000000e+00 -2.725882e+03  2.725882e+03 0.0 0.0 9.0
22  1 1 2   0   0  3.619529e+02 -2.394293e+03 -5.555307e+02  2.484404e+03 0.0 0.0 9.0
 2  1 1 2 103   0 -3.619529e+02  2.394293e+03  9.687898e+00  2.421517e+03 0.0022 0.0 9.0
#pdf 21 2 3.353906e-01 4.193664e-01 5000.0 2.334891e-02 8.196247e-03
</event>
<event>
4 7 1.0 5000.0 7.905138e-03 7.739137e-02
 2 -1 0 0 101   0  0.000000e+00  0.000000e+00  1.799602e+03  1.799602e+03 0.0 0.0 9.0
21 -1 0 0 103 101  0.000000e+00  0.000000e+00 -3.433083e+03  3.433083e+03 0.0 0.0 9.0
 2  1 1 2 103   0  1.828207e+03 -1.655008e+03 -4.892621e+02  2.514114e+03 0.0022 0.0 9.0
22  1 1 2   0   0 -1.828207e+03  1.655008e+03 -1.144219e+03  2.718571e+03 0.0 0.0 9.0
#pdf 2 21 2.768619e-01 5.281666e-01 5000.0 2.782979e-01 5.600275e-02
</event>
<event>
4 7 1.0 5000.0 7.905138e-03 7.739137e-02
 2 -1 0 0 101   0  0.000000e+00  0.000000e+00  3.431271e+03  3.431271e+03 0.0 0.0 9.0
21 -1 0 0 103 101  0.000000e+00  0.000000e+00 -1.381979e+03  1.381979e+03 0.0 0.0 9.0
22  1 1 2   0   0 -1.490240e+03  5.592400e+02  2.667001e+03  3.105875e+03 0.0 0.0 9.0
 2  1 1 2 103   0  1.490240e+03 -5.592400e+02 -6.177085e+02  1.707375e+03 0.0022 0.0 9.0
#pdf 2 21 5.278879e-01 2.126121e-01 5000.0 5.613433e-02 3.645825e-01
</event>
<event>
4 7 1.0 5000.0 7.905138e-03 7.739137e-02
21 -1 0 0 103 101  0.000000e+00  0.000000e+00  1.968115e+03  1.968115e+03 0.0 0.0 9.0
 2 -1 0 0 101   0  0.000000e+00  0.000000e+00 -3.134898e+03  3.134898e+03 0.0 0.0 9.0
22  1 1 2   0   0  6.662977e+02 -1.088971e+03  1.605323e+03  2.051066e+03 0.0 0.0 9.0
 2  1 1 2 103   0 -6.662977e+02  1.088971e+03 -2.772105e+03  3.051947e+03 0.0022 0.0 9.0
#pdf 21 2 3.027870e-01 4.822919e-01 5000.0 3.482952e-02 3.588957e-03
</event>
<event>
4 7 1.0 5000.0 7.905138e-03 7.739137e-02
 2 -1 0 0 101   0  0.000000e+00  0.000000e+00  3.614269e+03  3.614269e+03 0.0 0.0 9.0
21 -1 0 0 103 101  0.000000e+00  0.000000e+00 -1.764690e+03  1.764690e+03 0.0 0.0 9.0
22  1 1 2   0   0  7.161489e+02  1.141003e+03 -1.350117e+03  1.907242e+03 0.0 0.0 9.0
 2  1 1 2 103   0 -7.161489e+02 -1.141003e+03  3.199697e+03  3.471717e+03 0.0022 0.0 9.0
#pdf 2 21 5.560414e-01 2.714907e-01 5000.0 4.391739e-02 2.852470e-01
</event>
<event>
4 7 1.0 5000.0 7.905138e-03 7.739137e-02
 2 -1 0 0 101   0  0.000000e+00  0.000000e+00  3.590157e+03  3.590157e+03 0.0 0.0 9.0
21 -1 0 0 103 101  0.000000e+00  0.000000e+00 -1.737635e+03  1.737635e+03 0.0 0.0 9.0
22  1 1 2   0   0  2.249232e+03 -1.301322e+02  2.076160e+03  3.063727e+03 0.0 0.0 9.0
 2  1 1 2 103   0 -2.249232e+03  1.301322e+02 -2.236384e+02  2.264066e+03 0.0022 0.0 9.0
#pdf 2 21 5.523318e-01 2.673285e-01 5000.0 4.538983e-02 2.906763e-01
</event>
<event>
4 7 1.0 5000.0 7.905138e-03 7.739137e-02
 2 -1 0 0 101   0  0.000000e+00  0.000000e+00  2.228521e+03  2.228521e+03 0.0 0.0 9.0
21 -1 0 0 103 101  0.000000e+00  0.000000e+00 -2.789212e+03  2.789212e+03 0.0 0.0 9.0
22  1 1 2   0   0 -1.384778e+03  4.771866e+02 -2.310608e+03  2.735732e+03 0.0 0.0 9.0
 2  1 1 2 103   0  1.384778e+03 -4.771866e+02  1.749917e+03  2.282001e+03 0.0022 0.0 9.0
#pdf 2 21 3.428493e-01 4.291095e-01 5000.0 1.994047e-01 1.180346e-01
</event>
<event>
4 7 1.0 5000.0 7.905138e-03 7.739137e-02
21 -1 0 0 103 101  0.000000e+00  0.000000e+00  5.597111e+03  5.597111e+03 0.0 0.0 9.0
 2 -1 0 0 101   0  0.000000e+00  0.000000e+00 -1.470648e+03  1.470648e+03 0.0 0.0 9.0
22  1 1 2   0   0 -9.320911e+02  1.027062e+03  5.156745e+03  5.340006e+03 0.0 0.0 9.0
 2  1 1 2 103   0  9.320911e+02 -1.027062e+03 -1.030282e+03  1.727753e+03 0.0022 0.0 9.0
#pdf 21 2 8.610940e-01 2.262535e-01 5000.0 1.349339e-06 8.979825e-02
</event>
<event>
4 7 1.0 5000.0 7.905138e-03 7.739137e-02
21 -1 0 0 103 101  0.000000e+00  0.000000e+00  3.448355e+03  3.448355e+03 0.0 0.0 9.0
 2 -1 0 0 101   0  0.000000e+00  0.000000e+00 -1.769564e+03  1.769564e+03 0.0 0.0 9.0
 2  1 1 2 103   0 -2.694564e+02 -5.784607e+02 -1.681006e+03  1.798056e+03 0.0022 0.0 9.0
22  1 1 2   0   0  2.694564e+02  5.784607e+02  3.359798e+03  3.419863e+03 0.0 0.0 9.0
#pdf 21 2 5.305162e-01 2.722406e-01 5000.0 1.836456e-03 5.063139e-02
</event>
<event>
4 7 1.0 5000.0 7.905138e-03 7.739137e-02
 2 -1 0 0 101   0  0.000000e+00  0.000000e+00  2.853537e+03  2.853537e+03 0.0 0.0 9.0
21 -1 0 0 103 101  0.000000e+00  0.000000e+00 -2.204695e+03  2.204695e+03 0.0 0.0 9.0
22  1 1 2   0   0 -6.681542e+02  1.742684e+03  2.014029e+03  2.745849e+03 0.0 0.0 9.0
 2  1 1 2 103   0  6.681542e+02 -1.742684e+03 -1.365188e+03  2.312383e+03 0.0022 0.0 9.0
#pdf 2 21 4.390056e-01 3.391839e-01 5000.0 1.103873e-01 2.034350e-01
</event>
<event>
4 7 1.0 5000.0 7.905138e-03 7.739137e-02
 2 -1 0 0 101   0  0.000000e+00  0.000000e+00  2.492982e+03  2.492982e+03 0.0 0.0 9.0
21 -1 0 0 103 101  0.000000e+00  0.000000e+00 -2.442906e+03  2.442906e+03 0.0 0.0 9.0
22  1 1 2   0   0  1.549617e+03  6.939479e+02 -1.765933e+03  2.449774e+03 0.0 0.0 9.0
 2  1 1 2 103   0 -1.549617e+03 -6.939479e+02  1.816008e+03  2.486114e+03 0.0022 0.0 9.0
#pdf 2 21 3.835356e-01 3.758318e-01 5000.0 1.577749e-01 1.652082e-01
</event>
<event>
4 7 1.0 5000.0 7.905138e-03 7.739137e-02
 2 -1 0 0 101   0  0.000000e+00  0.000000e+00  2.330519e+03  2.330519e+03 0.0 0.0 9.0
21 -1 0 0 103 101  0.000000e+00  0.000000e+00 -2.640119e+03  2.640119e+03 0.0 0.0 9.0
22  1 1 2   0   0  1.565627e+02 -4.707891e+02  2.280297e+03  2.333648e+03 0.0 0.0 9.0
 2  1 1 2 103   0 -1.565627e+02  4.707891e+02 -2.589897e+03  2.636991e+03 0.0022 0.0 9.0
#pdf 2 21 3.585415e-01 4.061722e-01 5000.0 1.826615e-01 1.371192e-01
</event>
<event>
4 7 1.0 5000.0 7.905138e-03 7.739137e-02
 2 -1 0 0 101   0  0.000000e+00  0.000000e+00  2.486000e+03  2.486000e+03 0.0 0.0 9.0
21 -1 0 0 103 101  0.000000e+00  0.000000e+00 -2.428420e+03  2.428420e+03 0.0 0.0 9.0
22  1 1 2   0   0 -2.306104e+02 -5.185896e+02  2.419547e+03  2.485221e+03 0.0 0.0 9.0
 2  1 1 2 103   0  2.306104e+02  5.185896e+02 -2.361967e+03  2.429198e+03 0.0022 0.0 9.0
#pdf 2 21 3.824615e-01 3.736031e-01 5000.0 1.587993e-01 1.673938e-01
</event>
<event>
4 7 1.0 5000.0 7.905138e-03 7.739137e-02
21 -1 0 0 103 101  0.000000e+00  0.000000e+00  2.711827e+03  2.711827e+03 0.0 0.0 9.0
 2 -1 0 0 101   0  0.000000e+00  0.000000e+00 -2.212453e+03  2.212453e+03 0.0 0.0 9.0
22  1 1 2   0   0 -1.967658e+03  2.184507e+02  1.699518e+03  2.609168e+03 0.0 0.0 9.0
 2  1 1 2 103   0  1.967658e+03 -2.184507e+02 -1.200144e+03  2.315112e+03 0.0022 0.0 9.0
#pdf 21 2 4.172042e-01 3.403774e-01 5000.0 8.425100e-03 2.196118e-02
</event>
<event>
4 7 1.0 5000.0 7.905138e-03 7.739137e-02
 2 -1 0 0 101   0  0.000000e+00  0.000000e+00  2.486058e+03  2.486058e+03 0.0 0.0 9.0
21 -1 0 0 103 101  0.000000e+00  0.000000e+00 -2.701556e+03  2.701556e+03 0.0 0.0 9.0
22  1 1 2   0   0  1.845425e+03 -4.234560e+02 -1.878829e+03  2.667379e+03 0.0 0.0 9.0
 2  1 1 2 103   0 -1.845425e+03  4.234560e+02  1.663331e+03  2.520234e+03 0.0022 0.0 9.0
#pdf 2 21 3.824704e-01 4.156239e-01 5000.0 1.587908e-01 1.290303e-01
</event>
<event>
4 7 1.0 5000.0 7.905138e-03 7.739137e-02
 2 -1 0 0 101   0  0.000000e+00  0.000000e+00  2.070852e+03  2.070852e+03 0.0 0.0 9.0
21 -1 0 0 103 101  0.000000e+00  0.000000e+00 -3.043736e+03  3.043736e+03 0.0 0.0 9.0
 2  1 1 2 103   0  9.631826e+02 -2.003314e+03  7.023696e+02  2.331161e+03 0.0022 0.0 9.0
22  1 1 2   0   0 -9.631826e+02  2.003314e+03 -1.675254e+03  2.783427e+03 0.0 0.0 9.0
#pdf 2 21 3.185926e-01 4.682671e-01 5000.0 2.268934e-01 8.969036e-02
</event>
<event>
4 7 1.0 5000.0 7.905138e-03 7.739137e-02
 2 -1 0 0 101   0  0.000000e+00  0.000000e+00  1.616950e+03  1.616950e+03 0.0 0.0 9.0
21 -1 0 0 103 101  0.000000e+00  0.000000e+00 -3.934313e+03  3.934313e+03 0.0 0.0 9.0
22  1 1 2   0   0 -4.011958e+02  2.226831e+03  6.766684e+01  2.263695e+03 0.0 0.0 9.0
 2  1 1 2 103   0  4.011958e+02 -2.226831e+03 -2.385029e+03  3.287568e+03 0.0022 0.0 9.0
#pdf 2 21 2.487616e-01 6.052789e-01 5000.0 3.152684e-01 2.735620e-02
</event>
<event>
4 7 1.0 5000.0 7.905138e-03 7.739137e-02
 2 -1 0 0 101   0  0.000000e+00  0.000000e+00  2.863303e+03  2.863303e+03 0.0 0.0 9.0
21 -1 0 0 103 101  0.000000e+00  0.000000e+00 -2.004995e+03  2.004995e+03 0.0 0.0 9.0
 2  1 1 2 103   0 -2.372858e+03  6.222972e+01  7.608131e+02  2.492622e+03 0.0022 0.0 9.0
22  1 1 2   0   0  2.372858e+03 -6.222972e+01  9.749493e+01  2.375675e+03 0.0 0.0 9.0
#pdf 2 21 4.405081e-01 3.084607e-01 5000.0 1.092527e-01 2.389109e-01
</event>
<event>
4 7 1.0 5000.0 7.905138e-03 7.739137e-02
21 -1 0 0 103 101  0.000000e+00  0.000000e+00  1.684112e+03  1.684112e+03 0.0 0.0 9.0
 2 -1 0 0 101   0  0.000000e+00  0.000000e+00 -3.717131e+03  3.717131e+03 0.0 0.0 9.0
 2  1 1 2 103   0 -5.774238e+02  2.264206e+03 -5.107248e+01  2.337232e+03 0.0022 0.0 9.0
22  1 1 2   0   0  5.774238e+02 -2.264206e+03 -1.981947e+03  3.064010e+03 0.0 0.0 9.0
#pdf 21 2 2.590941e-01 5.718663e-01 5000.0 5.958033e-02 9.958589e-04
</event>
<event>
4 7 1.0 5000.0 7.905138e-03 7.739137e-02
21 -1 0 0 103 101  0.000000e+00  0.000000e+00  3.031747e+03  3.031747e+03 0.0 0.0 9.0
 2 -1 0 0 101   0  0.000000e+00  0.000000e+00 -2.254199e+03  2.254199e+03 0.0 0.0 9.0
 2  1 1 2 103   0  7.060154e+02 -1.812137e+03  2.154945e+03  2.902772e+03 0.0022 0.0 9.0
22  1 1 2   0   0 -7.060154e+02  1.812137e+03 -1.377397e+03  2.383174e+03 0.0 0.0 9.0
#pdf 21 2 4.664226e-01 3.467999e-01 5000.0 4.441027e-03 2.030221e-02
</event>
<event>
4 7 1.0 5000.0 7.905138e-03 7.739137e-02
21 -1 0 0 103 101  0.000000e+00  0.000000e+00  1.601149e+03  1.601149e+03 0.0 0.0 9.0
 2 -1 0 0 101   0  0.000000e+00  0.000000e+00 -4.125305e+03  4.125305e+03 0.0 0.0 9.0
 2  1 1 2 103   0  2.018030e+02  2.562091e+03 -1.277641e+03  2.870087e+03 0.0022 0.0 9.0
22  1 1 2   0   0 -2.018030e+02 -2.562091e+03 -1.246514e+03  2.856367e+03 0.0 0.0 9.0
#pdf 21 2 2.463306e-01 6.346623e-01 5000.0 6.978613e-02 3.617250e-04
</event>
<event>
4 7 1.0 5000.0 7.905138e-03 7.739137e-02
 2 -1 0 0 101   0  0.000000e+00  0.000000e+00  3.910888e+03  3.910888e+03 0.0 0.0 9.0
21 -1 0 0 103 101  0.000000e+00  0.000000e+00 -1.616640e+03  1.616640e+03 0.0 0.0 9.0
22  1 1 2   0   0 -1.309807e+03  6.623938e+02  3.391149e+03  3.695166e+03 0.0 0.0 9.0
 2  1 1 2 103   0  1.309807e+03 -6.623938e+02 -1.096901e+03  1.832362e+03 0.0022 0.0 9.0
#pdf 2 21 6.016751e-01 2.487138e-01 5000.0 2.837851e-02 3.153328e-01
</event>
<event>
4 7 1.0 5000.0 7.905138e-03 7.739137e-02
21 -1 0 0 103 101  0.000000e+00  0.000000e+00  3.784933e+03  3.784933e+03 0.0 0.0 9.0
 2 -1 0 0 101   0  0.000000e+00  0.000000e+00 -1.469958e+03  1.469958e+03 0.0 0.0 9.0
 2  1 1 2 103   0  1.243639e+03 -7.975412e+02 -8.907180e+02  1.725134e+03 0.0022 0.0 9.0
22  1 1 2   0   0 -1.243639e+03  7.975412e+02  3.205694e+03  3.529757e+03 0.0 0.0 9.0
#pdf 21 2 5.822974e-01 2.261473e-01 5000.0 8.481710e-04 8.991992e-02
</event>
<event>
4 7 1.0 5000.0 7.905138e-03 7.739137e-02
21 -1 0 0 103 101  0.000000e+00  0.000000e+00  2.789141e+03  2.789141e+03 0.0 0.0 9.0
 2 -1 0 0 101   0  0.000000e+00  0.000000e+00 -2.127529e+03  2.127529e+03 0.0 0.0 9.0
 2  1 1 2 103   0  2.213380e+03 -9.965644e+02  1.245121e+02  2.430575e+03 0.0022 0.0 9.0
22  1 1 2   0   0 -2.213380e+03  9.965644e+02  5.370996e+02  2.486095e+03 0.0 0.0 9.0
#pdf 21 2 4.290986e-01 3.273122e-01 5000.0 7.234110e-03 2.578035e-02
</event>
<event>
4 7 1.0 5000.0 7.905138e-03 7.739137e-02
21 -1 0 0 103 101  0.000000e+00  0.000000e+00  1.733427e+03  1.733427e+03 0.0 0.0 9.0
 2 -1 0 0 101   0  0.000000e+00  0.000000e+00 -3.637417e+03  3.637417e+03 0.0 0.0 9.0
 2  1 1 2 103   0 -8.176219e+02 -1.681656e+03 -2.744325e+03  3.320812e+03 0.0022 0.0 9.0
22  1 1 2   0   0  8.176219e+02  1.681656e+03  8.403342e+02  2.050033e+03 0.0 0.0 9.0
#pdf 21 2 2.666811e-01 5.596027e-01 5000.0 5.421762e-02 1.200393e-03
</event>
<event>
4 7 1.0 5000.0 7.905138e-03 7.739137e-02
 2 -1 0 0 101   0  0.000000e+00  0.000000e+00  1.820512e+03  1.820512e+03 0.0 0.0 9.0
21 -1 0 0 103 101  0.000000e+00  0.000000e+00 -3.406403e+03  3.406403e+03 0.0 0.0 9.0
22  1 1 2   0   0 -3.515055e+02  8.791084e+02 -3.210152e+03  3.346859e+03 0.0 0.0 9.0
 2  1 1 2 103   0  3.515055e+02 -8.791084e+02  1.624261e+03  1.880057e+03 0.0022 0.0 9.0
#pdf 2 21 2.800788e-01 5.240620e-01 5000.0 2.741724e-01 5.796164e-02
</event>
<event>
4 7 1.0 5000.0 7.905138e-03 7.739137e-02
 2 -1 0 0 101   0  0.000000e+00  0.000000e+00  1.300957e+03  1.300957e+03 0.0 0.0 9.0
21 -1 0 0 103 101  0.000000e+00  0.000000e+00 -4.776176e+03  4.776176e+03 0.0 0.0 9.0
22  1 1 2   0   0 -2.443553e+03 -4.440496e+02 -1.997543e+03  3.187210e+03 0.0 0.0 9.0
 2  1 1 2 103   0  2.443553e+03  4.440496e+02 -1.477676e+03  2.889923e+03 0.0022 0.0 9.0
#pdf 2 21 2.001473e-01 7.347963e-01 5000.0 3.818238e-01 5.404837e-03
</event>
<event>
4 7 1.0 5000.0 7.905138e-03 7.739137e-02
21 -1 0 0 103 101  0.000000e+00  0.000000e+00  1.603367e+03  1.603367e+03 0.0 0.0 9.0
 2 -1 0 0 101   0  0.000000e+00  0.000000e+00 -4.007910e+03  4.007910e+03 0.0 0.0 9.0
 2  1 1 2 103   0  9.499976e+02 -3.963733e+02 -3.766186e+03  3.904327e+03 0.0022 0.0 9.0
22  1 1 2   0   0 -9.499976e+02  3.963733e+02  1.361644e+03  1.706951e+03 0.0 0.0 9.0
#pdf 21 2 2.466719e-01 6.166015e-01 5000.0 6.949971e-02 4.901540e-04
</event>
<event>
4 7 1.0 5000.0 7.905138e-03 7.739137e-02
 2 -1 0 0 101   0  0.000000e+00  0.000000e+00  3.402909e+03  3.402909e+03 0.0 0.0 9.0
21 -1 0 0 103 101  0.000000e+00  0.000000e+00 -1.831194e+03  1.831194e+03 0.0 0.0 9.0
 2  1 1 2 103   0  2.174056e+03  8.566159e+02 -1.347387e+02  2.340612e+03 0.0022 0.0 9.0
22  1 1 2   0   0 -2.174056e+03 -8.566159e+02  1.706454e+03  2.893492e+03 0.0 0.0 9.0
#pdf 2 21 5.235245e-01 2.817222e-01 5000.0 5.822163e-02 2.720766e-01
</event>
<event>
4 7 1.0 5000.0 7.905138e-03 7.739137e-02
 2 -1 0 0 101   0  0.000000e+00  0.000000e+00  1.399366e+03  1.399366e+03 0.0 0.0 9.0
21 -1 0 0 103 101  0.000000e+00  0.000000e+00 -4.267692e+03  4.267692e+03 0.0 0.0 9.0
22  1 1 2   0   0  1.319180e+03 -4.366051e+02  8.967220e+02  1.653775e+03 0.0 0.0 9.0
 2  1 1 2 103   0 -1.319180e+03  4.366051e+02 -3.765048e+03  4.013283e+03 0.0022 0.0 9.0
#pdf 2 21 2.152871e-01 6.565680e-01 5000.0 3.608878e-01 1.555327e-02
</event>
<event>
4 7 1.0 5000.0 7.905138e-03 7.739137e-02
21 -1 0 0 103 101  0.000000e+00  0.000000e+00  2.895955e+03  2.895955e+03 0.0 0.0 9.0
 2 -1 0 0 101   0  0.000000e+00  0.000000e+00 -2.220793e+03  2.220793e+03 0.0 0.0 9.0
 2  1 1 2 103   0  2.511711e+03 -3.436555e+02  2.697173e+02  2.549419e+03 0.0022 0.0 9.0
22  1 1 2   0   0 -2.511711e+03  3.436555e+02  4.054447e+02  2.567329e+03 0.0 0.0 9.0
#pdf 21 2 4.455315e-01 3.416604e-01 5000.0 5.845791e-03 2.161912e-02
</event>
<event>
4 7 1.0 5000.0 7.905138e-03 7.739137e-02
21 -1 0 0 103 101  0.000000e+00  0.000000e+00  3.460928e+03  3.460928e+03 0.0 0.0 9.0
 2 -1 0 0 101   0  0.000000e+00  0.000000e+00 -1.846995e+03  1.846995e+03 0.0 0.0 9.0
22  1 1 2   0   0 -1.964176e+03 -5.333121e+02  2.381484e+03  3.132711e+03 0.0 0.0 9.0
 2  1 1 2 103   0  1.964176e+03  5.333121e+02 -7.675515e+02  2.175212e+03 0.0022 0.0 9.0
#pdf 21 2 5.324504e-01 2.841531e-01 5000.0 1.786061e-03 4.373351e-02
</event>
<event>
4 7 1.0 5000.0 7.905138e-03 7.739137e-02
21 -1 0 0 103 101  0.000000e+00  0.000000e+00  3.122801e+03  3.122801e+03 0.0 0.0 9.0
 2 -1 0 0 101   0  0.000000e+00  0.000000e+00 -1.918386e+03  1.918386e+03 0.0 0.0 9.0
22  1 1 2   0   0  2.049334e+03  1.180469e+03  1.251455e+03  2.675708e+03 0.0 0.0 9.0
 2  1 1 2 103   0 -2.049334e+03 -1.180469e+03 -4.703982e+01  2.365478e+03 0.0022 0.0 9.0
#pdf 21 2 4.804309e-01 2.951363e-01 5000.0 3.680793e-03 3.826887e-02
</event>
<event>
4 7 1.0 5000.0 7.905138e-03 7.739137e-02
 2 -1 0 0 101   0  0.000000e+00  0.000000e+00  1.718419e+03  1.718419e+03 0.0 0.0 9.0
21 -1 0 0 103 101  0.000000e+00  0.000000e+00 -3.779480e+03  3.779480e+03 0.0 0.0 9.0
22  1 1 2   0   0  1.806066e+02  1.274202e+03 -3.403228e+03  3.638430e+03 0.0 0.0 9.0
 2  1 1 2 103   0 -1.806066e+02 -1.274202e+03  1.342167e+03  1.859468e+03 0.0022 0.0 9.0
#pdf 2 21 2.643721e-01 5.814584e-01 5000.0 2.945516e-01 3.464705e-02
</event>
<event>
4 7 1.0 5000.0 7.905138e-03 7.739137e-02
21 -1 0 0 103 101  0.000000e+00  0.000000e+00  3.776010e+03  3.776010e+03 0.0 0.0 9.0
 2 -1 0 0 101   0  0.000000e+00  0.000000e+00 -1.667658e+03  1.667658e+03 0.0 0.0 9.0
 2  1 1 2 103   0 -1.072800e+03  9.959742e+02 -1.156559e+03  1.865608e+03 0.0022 0.0 9.0
22  1 1 2   0   0  1.072800e+03 -9.959742e+02  3.264911e+03  3.578059e+03 0.0 0.0 9.0
#pdf 21 2 5.809246e-01 2.565627e-01 5000.0 8.663447e-04 6.150198e-02
</event>
<event>
4 7 1.0 5000.0 7.905138e-03 7.739137e-02
21 -1 0 0 103 101  0.000000e+00  0.000000e+00  1.718487e+03  1.718487e+03 0.0 0.0 9.0
 2 -1 0 0 101   0  0.000000e+00  0.000000e+00 -3.665832e+03  3.665832e+03 0.0 0.0 9.0
22  1 1 2   0   0 -1.945413e+03 -1.584669e+03 -9.068987e+02  2.668009e+03 0.0 0.0 9.0
 2  1 1 2 103   0  1.945413e+03  1.584669e+03 -1.040447e+03  2.716310e+03 0.0022 0.0 9.0
#pdf 21 2 2.643826e-01 5.639742e-01 5000.0 5.577975e-02 1.123961e-03
</event>
<event>
4 7 1.0 5000.0 7.905138e-03 7.739137e-02
 2 -1 0 0 101   0  0.000000e+00  0.000000e+00  2.955513e+03  2.955513e+03 0.0 0.0 9.0
21 -1 0 0 103 101  0.000000e+00  0.000000e+00 -2.077585e+03  2.077585e+03 0.0 0.0 9.0
22  1 1 2   0   0  2.416812e+03 -4.717222e+02  7.204595e+02  2.565651e+03 0.0 0.0 9.0
 2  1 1 2 103   0 -2.416812e+03  4.717222e+02  1.574689e+02  2.467448e+03 0.0022 0.0 9.0
#pdf 2 21 4.546943e-01 3.196284e-01 5000.0 9.892533e-02 2.256820e-01
</event>
<event>
4 7 1.0 5000.0 7.905138e-03 7.739137e-02
 2 -1 0 0 101   0  0.000000e+00  0.000000e+00  2.552525e+03  2.552525e+03 0.0 0.0 9.0
21 -1 0 0 103 101  0.000000e+00  0.000000e+00 -2.859538e+03  2.859538e+03 0.0 0.0 9.0
22  1 1 2   0   0 -7.194699e+02  2.225543e+03 -1.507858e+03  2.782861e+03 0.0 0.0 9.0
 2  1 1 2 103   0  7.194699e+02 -2.225543e+03  1.200845e+03  2.629203e+03 0.0022 0.0 9.0
#pdf 2 21 3.926962e-01 4.399289e-01 5000.0 1.492056e-01 1.096893e-01
</event>
<event>
4 7 1.0 5000.0 7.905138e-03 7.739137e-02
21 -1 0 0 103 101  0.000000e+00  0.000000e+00  3.512869e+03  3.512869e+03 0.0 0.0 9.0
 2 -1 0 0 101   0  0.000000e+00  0.000000e+00 -1.717126e+03  1.717126e+03 0.0 0.0 9.0
22  1 1 2   0   0 -1.742900e+03 -1.544690e+03  6.746935e+01  2.329875e+03 0.0 0.0 9.0
 2  1 1 2 103   0  1.742900e+03  1.544690e+03  1.728273e+03  2.900120e+03 0.0022 0.0 9.0
#pdf 21 2 5.404414e-01 2.641733e-01 5000.0 1.589605e-03 5.592446e-02
</event>
<event>
4 7 1.0 5000.0 7.905138e-03 7.739137e-02
 2 -1 0 0 101   0  0.000000e+00  0.000000e+00  3.811204e+03  3.811204e+03 0.0 0.0 9.0
21 -1 0 0 103 101  0.000000e+00  0.000000e+00 -1.587520e+03  1.587520e+03 0.0 0.0 9.0
 2  1 1 2 103   0  2.458794e+03 -2.394180e+01  1.041409e+03  2.670351e+03 0.0022 0.0 9.0
22  1 1 2   0   0 -2.458794e+03  2.394180e+01  1.182275e+03  2.728373e+03 0.0 0.0 9.0
#pdf 2 21 5.863391e-01 2.442338e-01 5000.0 3.304807e-02 3.213722e-01
</event>
<event>
4 7 1.0 5000.0 7.905138e-03 7.739137e-02
 2 -1 0 0 101   0  0.000000e+00  0.000000e+00  1.770949e+03  1.770949e+03 0.0 0.0 9.0
21 -1 0 0 103 101  0.000000e+00  0.000000e+00 -3.445104e+03  3.445104e+03 0.0 0.0 9.0
22  1 1 2   0   0 -6.333082e+02  6.712442e+02 -3.256239e+03  3.384485e+03 0.0 0.0 9.0
 2  1 1 2 103   0  6.333082e+02 -6.712442e+02  1.582085e+03  1.831568e+03 0.0022 0.0 9.0
#pdf 2 21 2.724538e-01 5.300159e-01 5000.0 2.839960e-01 5.513482e-02
</event>
<event>
4 7 1.0 5000.0 7.905138e-03 7.739137e-02
21 -1 0 0 103 101  0.000000e+00  0.000000e+00  4.533971e+03  4.533971e+03 0.0 0.0 9.0
 2 -1 0 0 101   0  0.000000e+00  0.000000e+00 -1.363641e+03  1.363641e+03 0.0 0.0 9.0
 2  1 1 2 103   0  8.077377e+02  1.278072e+02  4.369924e+03  4.445785e+03 0.0022 0.0 9.0
22  1 1 2   0   0 -8.077377e+02 -1.278072e+02 -1.199594e+03  1.451827e+03 0.0 0.0 9.0
#pdf 21 2 6.975340e-01 2.097909e-01 5000.0 1.137110e-04 1.108105e-01
</event>
<event>
4 7 1.0 5000.0 7.905138e-03 7.739137e-02
 2 -1 0 0 101   0  0.000000e+00  0.000000e+00  2.811629e+03  2.811629e+03 0.0 0.0 9.0
21 -1 0 0 103 101  0.000000e+00  0.000000e+00 -2.095764e+03  2.095764e+03 0.0 0.0 9.0
 2  1 1 2 103   0  6.050450e+02 -6.869171e+02  2.630481e+03  2.785204e+03 0.0022 0.0 9.0
22  1 1 2   0   0 -6.050450e+02  6.869171e+02 -1.914615e+03  2.122189e+03 0.0 0.0 9.0
#pdf 2 21 4.325584e-01 3.224252e-01 5000.0 1.153321e-01 2.224259e-01
</event>
<event>
4 7 1.0 5000.0 7.905138e-03 7.739137e-02
 2 -1 0 0 101   0  0.000000e+00  0.000000e+00  1.533988e+03  1.533988e+03 0.0 0.0 9.0
21 -1 0 0 103 101  0.000000e+00  0.000000e+00 -4.074693e+03  4.074693e+03 0.0 0.0 9.0
22  1 1 2   0   0 -4.199059e+02  1.245751e+03  1.115001e+03  1.723787e+03 0.0 0.0 9.0
 2  1 1 2 103   0  4.199059e+02 -1.245751e+03 -3.655706e+03  3.884894e+03 0.0022 0.0 9.0
#pdf 2 21 2.359982e-01 6.268759e-01 5000.0 3.325127e-01 2.177836e-02
</event>
<event>
4 7 1.0 5000.0 7.905138e-03 7.739137e-02
 2 -1 0 0 101   0  0.000000e+00  0.000000e+00  2.865425e+03  2.865425e+03 0.0 0.0 9.0
21 -1 0 0 103 101  0.000000e+00  0.000000e+00 -2.053815e+03  2.053815e+03 0.0 0.0 9.0
22  1 1 2   0   0 -2.322596e+03 -1.473325e+02  1.100077e+03  2.574166e+03 0.0 0.0 9.0
 2  1 1 2 103   0  2.322596e+03  1.473325e+02 -2.884666e+02  2.345074e+03 0.0022 0.0 9.0
#pdf 2 21 4.408347e-01 3.159715e-01 5000.0 1.090068e-01 2.299717e-01
</event>
<event>
4 7 1.0 5000.0 7.905138e-03 7.739137e-02
21 -1 0 0 103 101  0.000000e+00  0.000000e+00  1.584500e+03  1.584500e+03 0.0 0.0 9.0
 2 -1 0 0 101   0  0.000000e+00  0.000000e+00 -4.027198e+03  4.027198e+03 0.0 0.0 9.0
22  1 1 2   0   0 -1.301980e+03  2.159434e+03 -1.053683e+03  2.732866e+03 0.0 0.0 9.0
 2  1 1 2 103   0  1.301980e+03 -2.159434e+03 -1.389015e+03  2.878831e+03 0.0022 0.0 9.0
#pdf 21 2 2.437692e-01 6.195689e-01 5000.0 7.209376e-02 4.667356e-04
</event>
<event>
4 7 1.0 5000.0 7.905138e-03 7.739137e-02
21 -1 0 0 103 101  0.000000e+00  0.000000e+00  1.571833e+03  1.571833e+03 0.0 0.0 9.0
 2 -1 0 0 101   0  0.000000e+00  0.000000e+00 -3.968572e+03  3.968572e+03 0.0 0.0 9.0
22  1 1 2   0   0 -1.851969e+02  8.201572e+02  1.410138e+03  1.641781e+03 0.0 0.0 9.0
 2  1 1 2 103   0  1.851969e+02 -8.201572e+02 -3.806877e+03  3.898624e+03 0.0022 0.0 9.0
#pdf 21 2 2.418205e-01 6.105495e-01 5000.0 7.390442e-02 5.413068e-04
</event>
<event>
4 7 1.0 5000.0 7.905138e-03 7.739137e-02
21 -1 0 0 103 101  0.000000e+00  0.000000e+00  3.931932e+03  3.931932e+03 0.0 0.0 9.0
 2 -1 0 0 101   0  0.000000e+00  0.000000e+00 -1.520162e+03  1.520162e+03 0.0 0.0 9.0
22  1 1 2   0   0  1.239017e+03  2.106416e+03  1.284922e+03  2.761010e+03 0.0 0.0 9.0
 2  1 1 2 103   0 -1.239017e+03 -2.106416e+03  1.126849e+03  2.691085e+03 0.0022 0.0 9.0
#pdf 21 2 6.049127e-01 2.338711e-01 5000.0 5.933498e-04 8.160604e-02
</event>
<event>
4 7 1.0 5000.0 7.905138e-03 7.739137e-02
 2 -1 0 0 101   0  0.000000e+00  0.000000e+00  3.413291e+03  3.413291e+03 0.0 0.0 9.0
21 -1 0 0 103 101  0.000000e+00  0.000000e+00 -1.850213e+03  1.850213e+03 0.0 0.0 9.0
22  1 1 2   0   0  6.799741e+02  1.548756e+03 -1.164841e+03  2.053744e+03 0.0 0.0 9.0
 2  1 1 2 103   0 -6.799741e+02 -1.548756e+03  2.727919e+03  3.209759e+03 0.0022 0.0 9.0
#pdf 2 21 5.251216e-01 2.846481e-01 5000.0 5.745150e-02 2.683579e-01
</event>
<event>
4 7 1.0 5000.0 7.905138e-03 7.739137e-02
21 -1 0 0 103 101  0.000000e+00  0.000000e+00  1.465561e+03  1.465561e+03 0.0 0.0 9.0
 2 -1 0 0 101   0  0.000000e+00  0.000000e+00 -4.148586e+03  4.148586e+03 0.0 0.0 9.0
 2  1 1 2 103   0 -3.394737e+02  2.430018e+03 -1.619840e+03  2.940087e+03 0.0022 0.0 9.0
22  1 1 2   0   0  3.394737e+02 -2.430018e+03 -1.063186e+03  2.674060e+03 0.0 0.0 9.0
#pdf 21 2 2.254709e-01 6.382440e-01 5000.0 9.069930e-02 3.401995e-04
</event>
<event>
4 7 1.0 5000.0 7.905138e-03 7.739137e-02
 2 -1 0 0 101   0  0.000000e+00  0.000000e+00  2.273264e+03  2.273264e+03 0.0 0.0 9.0
21 -1 0 0 103 101  0.000000e+00  0.000000e+00 -2.564778e+03  2.564778e+03 0.0 0.0 9.0
22  1 1 2   0   0 -1.807198e+03 -1.227643e+03  8.843884e+02  2.356950e+03 0.0 0.0 9.0
 2  1 1 2 103   0  1.807198e+03  1.227643e+03 -1.175902e+03  2.481092e+03 0.0022 0.0 9.0
#pdf 2 21 3.497330e-01 3.945812e-01 5000.0 1.919541e-01 1.474778e-01
</event>
<event>
4 7 1.0 5000.0 7.905138e-03 7.739137e-02
 2 -1 0 0 101   0  0.000000e+00  0.000000e+00  2.303821e+03  2.303821e+03 0.0 0.0 9.0
21 -1 0 0 103 101  0.000000e+00  0.000000e+00 -2.674951e+03  2.674951e+03 0.0 0.0 9.0
 2  1 1 2 103   0 -1.924627e+03  1.452836e+02  1.379979e+03  2.372686e+03 0.0022 0.0 9.0
22  1 1 2   0   0  1.924627e+03 -1.452836e+02 -1.751109e+03  2.606085e+03 0.0 0.0 9.0
#pdf 2 21 3.544340e-01 4.115309e-01 5000.0 1.869607e-01 1.324957e-01
</event>
<event>
4 7 1.0 5000.0 7.905138e-03 7.739137e-02
 2 -1 0 0 101   0  0.000000e+00  0.000000e+00  1.343809e+03  1.343809e+03 0.0 0.0 9.0
21 -1 0 0 103 101  0.000000e+00  0.000000e+00 -4.459341e+03  4.459341e+03 0.0 0.0 9.0
22  1 1 2   0   0  3.508544e+02  1.925457e+03  1.850826e+02  1.965894e+03 0.0 0.0 9.0
 2  1 1 2 103   0 -3.508544e+02 -1.925457e+03 -3.300614e+03  3.837256e+03 0.0022 0.0 9.0
#pdf 2 21 2.067399e-01 6.860524e-01 5000.0 3.727429e-01 1.078218e-02
</event>
<event>
4 7 1.0 5000.0 7.905138e-03 7.739137e-02
 2 -1 0 0 101   0  0.000000e+00  0.000000e+00  1.751705e+03  1.751705e+03 0.0 0.0 9.0
21 -1 0 0 103 101  0.000000e+00  0.000000e+00 -3.610112e+03  3.610112e+03 0.0 0.0 9.0
 2  1 1 2 103   0 -2.209849e+03 -3.166595e+02 -2.163349e+03  3.108663e+03 0.0022 0.0 9.0
22  1 1 2   0   0  2.209849e+03  3.166595e+02  3.049424e+02  2.253153e+03 0.0 0.0 9.0
#pdf 2 21 2.694930e-01 5.554018e-01 5000.0 2.878486e-01 4.416892e-02
</event>
<event>
4 7 1.0 5000.0 7.905138e-03 7.739137e-02
21 -1 0 0 103 101  0.000000e+00  0.000000e+00  1.720053e+03  1.720053e+03 0.0 0.0 9.0
 2 -1 0 0 101   0  0.000000e+00  0.000000e+00 -3.582999e+03  3.582999e+03 0.0 0.0 9.0
 2  1 1 2 103   0 -1.080542e+03 -1.865259e+02 -3.310329e+03  3.487211e+03 0.0022 0.0 9.0
22  1 1 2   0   0  1.080542e+03  1.865259e+02  1.447383e+03  1.815842e+03 0.0 0.0 9.0
#pdf 21 2 2.646236e-01 5.512306e-01 5000.0 5.561362e-02 1.356617e-03
</event>
<event>
4 7 1.0 5000.0 7.905138e-03 7.739137e-02
 2 -1 0 0 101   0  0.000000e+00  0.000000e+00  3.513378e+03  3.513378e+03 0.0 0.0 9.0
21 -1 0 0 103 101  0.000000e+00  0.000000e+00 -1.730561e+03  1.730561e+03 0.0 0.0 9.0
 2  1 1 2 103   0  1.478525e+03 -1.899078e+03  3.211743e+02  2.428104e+03 0.0022 0.0 9.0
22  1 1 2   0   0 -1.478525e+03  1.899078e+03  1.461643e+03  2.815836e+03 0.0 0.0 9.0
#pdf 2 21 5.405198e-01 2.662402e-01 5000.0 5.037566e-02 2.921013e-01
</event>
<event>
4 7 1.0 5000.0 7.905138e-03 7.739137e-02
 2 -1 0 0 101   0  0.000000e+00  0.000000e+00  1.552880e+03  1.552880e+03 0.0 0.0 9.0
21 -1 0 0 103 101  0.000000e+00  0.000000e+00 -3.551505e+03  3.551505e+03 0.0 0.0 9.0
22  1 1 2   0   0  2.031186e+03 -8.731088e+02 -1.387535e+02  2.215240e+03 0.0 0.0 9.0
 2  1 1 2 103   0 -2.031186e+03  8.731088e+02 -1.859872e+03  2.889145e+03 0.0022 0.0 9.0
#pdf 2 21 2.389046e-01 5.463854e-01 5000.0 3.285528e-01 4.786009e-02
</event>
<event>
4 7 1.0 5000.0 7.905138e-03 7.739137e-02
21 -1 0 0 103 101  0.000000e+00  0.000000e+00  1.754170e+03  1.754170e+03 0.0 0.0 9.0
 2 -1 0 0 101   0  0.000000e+00  0.000000e+00 -2.715596e+03  2.715596e+03 0.0 0.0 9.0
 2  1 1 2 103   0  6.315232e+02 -1.541137e+03 -1.925085e+03  2.545561e+03 0.0022 0.0 9.0
22  1 1 2   0   0 -6.315232e+02  1.541137e+03  9.636599e+02  1.924205e+03 0.0 0.0 9.0
#pdf 21 2 2.698724e-01 4.177839e-01 5000.0 5.212728e-02 8.363152e-03
</event>
<event>
4 7 1.0 5000.0 7.905138e-03 7.739137e-02
21 -1 0 0 103 101  0.000000e+00  0.000000e+00  1.374374e+03  1.374374e+03 0.0 0.0 9.0
 2 -1 0 0 101   0  0.000000e+00  0.000000e+00 -4.144415e+03  4.144415e+03 0.0 0.0 9.0
22  1 1 2   0   0  2.266514e+03 -6.620302e+02 -1.786544e+03  2.960930e+03 0.0 0.0 9.0
 2  1 1 2 103   0 -2.266514e+03  6.620302e+02 -9.834970e+02  2.557858e+03 0.0022 0.0 9.0
#pdf 21 2 2.114421e-01 6.376022e-01 5000.0 1.085145e-01 3.439725e-04
</event>
<event>
4 7 1.0 5000.0 7.905138e-03 7.739137e-02
21 -1 0 0 103 101  0.000000e+00  0.000000e+00  2.938788e+03  2.938788e+03 0.0 0.0 9.0
 2 -1 0 0 101   0  0.000000e+00  0.000000e+00 -2.080123e+03  2.080123e+03 0.0 0.0 9.0
22  1 1 2   0   0 -1.019216e+03  1.491861e+03 -1.283702e+03  2.216380e+03 0.0 0.0 9.0
 2  1 1 2 103   0  1.019216e+03 -1.491861e+03  2.142366e+03  2.802531e+03 0.0022 0.0 9.0
#pdf 21 2 4.521212e-01 3.200190e-01 5000.0 5.367608e-03 2.818634e-02
</event>
<event>
4 7 1.0 5000.0 7.905138e-03 7.739137e-02
 2 -1 0 0 101   0  0.000000e+00  0.000000e+00  2.906731e+03  2.906731e+03 0.0 0.0 9.0
21 -1 0 0 103 101  0.000000e+00  0.000000e+00 -2.189771e+03  2.189771e+03 0.0 0.0 9.0
22  1 1 2   0   0 -9.198673e+02  2.295394e+03 -1.466307e+02  2.477194e+03 0.0 0.0 9.0
 2  1 1 2 103   0  9.198673e+02 -2.295394e+03  8.635902e+02  2.619308e+03 0.0022 0.0 9.0
#pdf 2 21 4.471893e-01 3.368879e-01 5000.0 1.042858e-01 2.059806e-01
</event>
<event>
4 7 1.0 5000.0 7.905138e-03 7.739137e-02
21 -1 0 0 103 101  0.000000e+00  0.000000e+00  2.613827e+03  2.613827e+03 0.0 0.0 9.0
 2 -1 0 0 101   0  0.000000e+00  0.000000e+00 -1.951526e+03  1.951526e+03 0.0 0.0 9.0
 2  1 1 2 103   0  1.039981e+03 -1.099529e+03  2.025507e+03  2.528479e+03 0.0022 0.0 9.0
22  1 1 2   0   0 -1.039981e+03  1.099529e+03 -1.363207e+03  2.036874e+03 0.0 0.0 9.0
#pdf 21 2 4.021272e-01 3.002348e-01 5000.0 1.020287e-02 3.590620e-02
</event>
<event>
4 7 1.0 5000.0 7.905138e-03 7.739137e-02
21 -1 0 0 103 101  0.000000e+00  0.000000e+00  2.915012e+03  2.915012e+03 0.0 0.0 9.0
 2 -1 0 0 101   0  0.000000e+00  0.000000e+00 -2.069874e+03  2.069874e+03 0.0 0.0 9.0
22  1 1 2   0   0  1.963459e+03 -1.028880e+03 -6.512492e+02  2.310388e+03 0.0 0.0 9.0
 2  1 1 2 103   0 -1.963459e+03  1.028880e+03  1.496387e+03  2.674498e+03 0.0022 0.0 9.0
#pdf 21 2 4.484633e-01 3.184422e-01 5000.0 5.626858e-03 2.873651e-02
</event>
<event>
4 7 1.0 5000.0 7.905138e-03 7.739137e-02
 2 -1 0 0 101   0  0.000000e+00  0.000000e+00  2.253327e+03  2.253327e+03 0.0 0.0 9.0
21 -1 0 0 103 101  0.000000e+00  0.000000e+00 -2.372711e+03  2.372711e+03 0.0 0.0 9.0
 2  1 1 2 103   0  1.445151e+03 -1.156881e+03  1.326287e+03  2.277251e+03 0.0022 0.0 9.0
22  1 1 2   0   0 -1.445151e+03  1.156881e+03 -1.445670e+03  2.348787e+03 0.0 0.0 9.0
#pdf 2 21 3.466657e-01 3.650324e-01 5000.0 1.952543e-01 1.759833e-01
</event>
<event>
4 7 1.0 5000.0 7.905138e-03 7.739137e-02
 2 -1 0 0 101   0  0.000000e+00  0.000000e+00  2.105396e+03  2.105396e+03 0.0 0.0 9.0
21 -1 0 0 103 101  0.000000e+00  0.000000e+00 -2.700985e+03  2.700985e+03 0.0 0.0 9.0
22  1 1 2   0   0 -1.549003e+03 -1.770580e+03 -6.910516e+02  2.451921e+03 0.0 0.0 9.0
 2  1 1 2 103   0  1.549003e+03  1.770580e+03  9.546215e+01  2.354459e+03 0.0022 0.0 9.0
#pdf 2 21 3.239070e-01 4.155362e-01 5000.0 2.207096e-01 1.291040e-01
</event>
<event>
4 7 1.0 5000.0 7.905138e-03 7.739137e-02
21 -1 0 0 103 101  0.000000e+00  0.000000e+00  3.277189e+03  3.277189e+03 0.0 0.0 9.0
 2 -1 0 0 101   0  0.000000e+00  0.000000e+00 -1.511554e+03  1.511554e+03 0.0 0.0 9.0
 2  1 1 2 103   0 -3.406668e+02  2.171851e+03  1.256507e+03  2.532153e+03 0.0022 0.0 9.0
22  1 1 2   0   0  3.406668e+02 -2.171851e+03  5.091285e+02  2.256590e+03 0.0 0.0 9.0
#pdf 21 2 5.041830e-01 2.325468e-01 5000.0 2.659672e-03 8.295995e-02
</event>
<event>
4 7 1.0 5000.0 7.905138e-03 7.739137e-02
 2 -1 0 0 101   0  0.000000e+00  0.000000e+00  2.400857e+03  2.400857e+03 0.0 0.0 9.0
21 -1 0 0 103 101  0.000000e+00  0.000000e+00 -2.743239e+03  2.743239e+03 0.0 0.0 9.0
22  1 1 2   0   0  7.465127e+01 -1.582450e+03 -2.194689e+03  2.706729e+03 0.0 0.0 9.0
 2  1 1 2 103   0 -7.465127e+01  1.582450e+03  1.852306e+03  2.437367e+03 0.0022 0.0 9.0
#pdf 2 21 3.693625e-01 4.220368e-01 5000.0 1.716055e-01 1.237185e-01
</event>
<event>
4 7 1.0 5000.0 7.905138e-03 7.739137e-02
21 -1 0 0 103 101  0.000000e+00  0.000000e+00  2.498911e+03  2.498911e+03 0.0 0.0 9.0
 2 -1 0 0 101   0  0.000000e+00  0.000000e+00 -2.606268e+03  2.606268e+03 0.0 0.0 9.0
 2  1 1 2 103   0 -8.392974e+02 -1.478579e+03 -1.957311e+03  2.592621e+03 0.0022 0.0 9.0
22  1 1 2   0   0  8.392974e+02  1.478579e+03  1.849955e+03  2.512558e+03 0.0 0.0 9.0
#pdf 21 2 3.844479e-01 4.009643e-01 5000.0 1.274509e-02 1.035340e-02
</event>
<event>
4 7 1.0 5000.0 7.905138e-03 7.739137e-02
21 -1 0 0 103 101  0.000000e+00  0.000000e+00  2.074872e+03  2.074872e+03 0.0 0.0 9.0
 2 -1 0 0 101   0  0.000000e+00  0.000000e+00 -2.998919e+03  2.998919e+03 0.0 0.0 9.0
 2  1 1 2 103   0  1.097667e+03 -1.395474e+03 -2.244010e+03  2.861433e+03 0.0022 0.0 9.0
22  1 1 2   0   0 -1.097667e+03  1.395474e+03  1.319962e+03  2.212357e+03 0.0 0.0 9.0
#pdf 21 2 3.192110e-01 4.613721e-01 5000.0 2.846684e-02 4.748012e-03
</event>
<event>
4 7 1.0 5000.0 7.905138e-03 7.739137e-02
 2 -1 0 0 101   0  0.000000e+00  0.000000e+00  2.131854e+03  2.131854e+03 0.0 0.0 9.0
21 -1 0 0 103 101  0.000000e+00  0.000000e+00 -2.905776e+03  2.905776e+03 0.0 0.0 9.0
22  1 1 2   0   0 -1.236616e+02  2.465743e+03 -6.771991e+01  2.469771e+03 0.0 0.0 9.0
 2  1 1 2 103   0  1.236616e+02 -2.465743e+03 -7.062016e+02  2.567859e+03 0.0022 0.0 9.0
#pdf 2 21 3.279776e-01 4.470424e-01 5000.0 2.160295e-01 1.043927e-01
</event>
<event>
4 7 1.0 5000.0 7.905138e-03 7.739137e-02
 2 -1 0 0 101   0  0.000000e+00  0.000000e+00  2.005369e+03  2.005369e+03 0.0 0.0 9.0
21 -1 0 0 103 101  0.000000e+00  0.000000e+00 -3.285864e+03  3.285864e+03 0.0 0.0 9.0
22  1 1 2   0   0  6.369310e+02  1.860570e+03 -2.340629e+03  3.057114e+03 0.0 0.0 9.0
 2  1 1 2 103   0 -6.369310e+02 -1.860570e+03  1.060134e+03  2.234119e+03 0.0022 0.0 9.0
#pdf 2 21 3.085184e-01 5.055175e-01 5000.0 2.388416e-01 6.743539e-02
</event>
<event>
4 7 1.0 5000.0 7.905138e-03 7.739137e-02
 2 -1 0 0 101   0  0.000000e+00  0.000000e+00  2.633633e+03  2.633633e+03 0.0 0.0 9.0
21 -1 0 0 103 101  0.000000e+00  0.000000e+00 -2.490290e+03  2.490290e+03 0.0 0.0 9.0
 2  1 1 2 103   0 -5.785443e+02  6.372481e+02 -2.341266e+03  2.494459e+03 0.0022 0.0 9.0
22  1 1 2   0   0  5.785443e+02 -6.372481e+02  2.484609e+03  2.629464e+03 0.0 0.0 9.0
#pdf 2 21 4.051742e-01 3.831215e-01 5000.0 1.379920e-01 1.581694e-01
</event>
<event>
4 7 1.0 5000.0 7.905138e-03 7.739137e-02
21 -1 0 0 103 101  0.000000e+00  0.000000e+00  1.142667e+03  1.142667e+03 0.0 0.0 9.0
 2 -1 0 0 101   0  0.000000e+00  0.000000e+00 -5.467066e+03  5.467066e+03 0.0 0.0 9.0
22  1 1 2   0   0 -1.651885e+03 -1.849284e+03 -1.747291e+03  3.033414e+03 0.0 0.0 9.0
 2  1 1 2 103   0  1.651885e+03  1.849284e+03 -2.577107e+03  3.576319e+03 0.0022 0.0 9.0
#pdf 21 2 1.757950e-01 8.410870e-01 5000.0 1.735935e-01 2.828274e-06
</event>
<event>
4 7 1.0 5000.0 7.905138e-03 7.739137e-02
 2 -1 0 0 101   0  0.000000e+00  0.000000e+00  3.693436e+03  3.693436e+03 0.0 0.0 9.0
21 -1 0 0 103 101  0.000000e+00  0.000000e+00 -1.742357e+03  1.742357e+03 0.0 0.0 9.0
 2  1 1 2 103   0 -2.271051e+03 -1.061765e+03  1.390859e+03  2.866968e+03 0.0022 0.0 9.0
22  1 1 2   0   0  2.271051e+03  1.061765e+03  5.602189e+02  2.568825e+03 0.0 0.0 9.0
#pdf 2 21 5.682209e-01 2.680550e-01 5000.0 3.927471e-02 2.897263e-01
</event>
<event>
4 7 1.0 5000.0 7.905138e-03 7.739137e-02
21 -1 0 0 103 101  0.000000e+00  0.000000e+00  3.231928e+03  3.231928e+03 0.0 0.0 9.0
 2 -1 0 0 101   0  0.000000e+00  0.000000e+00 -1.932335e+03  1.932335e+03 0.0 0.0 9.0
 2  1 1 2 103   0 -2.467429e+03 -8.123941e+01  1.050455e+03  2.682958e+03 0.0022 0.0 9.0
22  1 1 2   0   0  2.467429e+03  8.123941e+01  2.491377e+02  2.481305e+03 0.0 0.0 9.0
#pdf 21 2 4.972197e-01 2.972823e-01 5000.0 2.928766e-03 3.726542e-02
</event>
<event>
4 7 1.0 5000.0 7.905138e-03 7.739137e-02
 2 -1 0 0 101   0  0.000000e+00  0.000000e+00  1.415620e+03  1.415620e+03 0.0 0.0 9.0
21 -1 0 0 103 101  0.000000e+00  0.000000e+00 -4.347344e+03  4.347344e+03 0.0 0.0 9.0
 2  1 1 2 103   0  7.000317e+01 -1.000248e+03  1.169760e+03  1.540693e+03 0.0022 0.0 9.0
22  1 1 2   0   0 -7.000317e+01  1.000248e+03 -4.101484e+03  4.222271e+03 0.0 0.0 9.0
#pdf 2 21 2.177876e-01 6.688222e-01 5000.0 3.574477e-01 1.340266e-02
</event>
<event>
4 7 1.0 5000.0 7.905138e-03 7.739137e-02
 2 -1 0 0 101   0  0.000000e+00  0.000000e+00  2.387282e+03  2.387282e+03 0.0 0.0 9.0
21 -1 0 0 103 101  0.000000e+00  0.000000e+00 -2.619763e+03  2.619763e+03 0.0 0.0 9.0
 2  1 1 2 103   0  1.769468e+03 -1.502749e+03 -1.047213e+03  2.546748e+03 0.0022 0.0 9.0
22  1 1 2   0   0 -1.769468e+03  1.502749e+03  8.147314e+02  2.460297e+03 0.0 0.0 9.0
#pdf 2 21 3.672741e-01 4.030405e-01 5000.0 1.737093e-01 1.398707e-01
</event>
<event>
4 7 1.0 5000.0 7.905138e-03 7.739137e-02
21 -1 0 0 103 101  0.000000e+00  0.000000e+00  2.751478e+03  2.751478e+03 0.0 0.0 9.0
 2 -1 0 0 101   0  0.000000e+00  0.000000e+00 -2.292788e+03  2.292788e+03 0.0 0.0 9.0
22  1 1 2   0   0  1.983728e+03 -1.484028e+03  6.446348e+02  2.559896e+03 0.0 0.0 9.0
 2  1 1 2 103   0 -1.983728e+03  1.484028e+03 -1.859448e+02  2.484369e+03 0.0022 0.0 9.0
#pdf 21 2 4.233043e-01 3.527366e-01 5000.0 7.794040e-03 1.886976e-02
</event>
<event>
4 7 1.0 5000.0 7.905138e-03 7.739137e-02
21 -1 0 0 103 101  0.000000e+00  0.000000e+00  2.695438e+03  2.695438e+03 0.0 0.0 9.0
 2 -1 0 0 101   0  0.000000e+00  0.000000e+00 -2.465404e+03  2.465404e+03 0.0 0.0 9.0
 2  1 1 2 103   0 -9.755732e+00 -1.556309e+03 -1.942059e+03  2.488731e+03 0.0022 0.0 9.0
22  1 1 2   0   0  9.755732e+00  1.556309e+03  2.172092e+03  2.672111e+03 0.0 0.0 9.0
#pdf 21 2 4.146828e-01 3.792930e-01 5000.0 8.699717e-03 1.359493e-02
</event>
<event>
4 7 1.0 5000.0 7.905138e-03 7.739137e-02
 2 -1 0 0 101   0  0.000000e+00  0.000000e+00  2.604631e+03  2.604631e+03 0.0 0.0 9.0
21 -1 0 0 103 101  0.000000e+00  0.000000e+00 -2.549894e+03  2.549894e+03 0.0 0.0 9.0
 2  1 1 2 103   0 -5.878966e+02 -2.342965e+03 -8.706934e+02  2.567726e+03 0.0022 0.0 9.0
22  1 1 2   0   0  5.878966e+02  2.342965e+03  9.254310e+02  2.586799e+03 0.0 0.0 9.0
#pdf 2 21 4.007125e-01 3.922914e-01 5000.0 1.419392e-01 1.495782e-01
</event>
<event>
4 7 1.0 5000.0 7.905138e-03 7.739137e-02
21 -1 0 0 103 101  0.000000e+00  0.000000e+00  2.279730e+03  2.279730e+03 0.0 0.0 9.0
 2 -1 0 0 101   0  0.000000e+00  0.000000e+00 -2.704314e+03  2.704314e+03 0.0 0.0 9.0
22  1 1 2   0   0  1.246153e+02 -2.039856e+03  1.203019e+03  2.371454e+03 0.0 0.0 9.0
 2  1 1 2 103   0 -1.246153e+02  2.039856e+03 -1.627603e+03  2.612591e+03 0.0022 0.0 9.0
#pdf 21 2 3.507278e-01 4.160484e-01 5000.0 1.934529e-02 8.549916e-03
</event>
<event>
4 7 1.0 5000.0 7.905138e-03 7.739137e-02
21 -1 0 0 103 101  0.000000e+00  0.000000e+00  3.635496e+03  3.635496e+03 0.0 0.0 9.0
 2 -1 0 0 101   0  0.000000e+00  0.000000e+00 -1.762174e+03  1.762174e+03 0.0 0.0 9.0
22  1 1 2   0   0 -2.065092e+03  1.463042e+03  8.985159e+02  2.685596e+03 0.0 0.0 9.0
 2  1 1 2 103   0  2.065092e+03 -1.463042e+03  9.748061e+02  2.712074e+03 0.0022 0.0 9.0
#pdf 21 2 5.593071e-01 2.711037e-01 5000.0 1.205681e-03 5.134383e-02
</event>
<event>
4 7 1.0 5000.0 7.905138e-03 7.739137e-02
 2 -1 0 0 101   0  0.000000e+00  0.000000e+00  1.702576e+03  1.702576e+03 0.0 0.0 9.0
21 -1 0 0 103 101  0.000000e+00  0.000000e+00 -3.702626e+03  3.702626e+03 0.0 0.0 9.0
22  1 1 2   0   0  8.538311e+02  1.586230e+03  8.825526e+02  2.006004e+03 0.0 0.0 9.0
 2  1 1 2 103   0 -8.538311e+02 -1.586230e+03 -2.882603e+03  3.399199e+03 0.0022 0.0 9.0
#pdf 2 21 2.619348e-01 5.696348e-01 5000.0 2.977553e-01 3.875827e-02
</event>
<event>
4 7 1.0 5000.0 7.905138e-03 7.739137e-02
 2 -1 0 0 101   0  0.000000e+00  0.000000e+00  2.840574e+03  2.840574e+03 0.0 0.0 9.0
21 -1 0 0 103 101  0.000000e+00  0.000000e+00 -2.225145e+03  2.225145e+03 0.0 0.0 9.0
22  1 1 2   0   0 -4.962629e+02 -2.451599e+03  5.627289e+02  2.563841e+03 0.0 0.0 9.0
 2  1 1 2 103   0  4.962629e+02  2.451599e+03  5.270033e+01  2.501878e+03 0.0022 0.0 9.0
#pdf 2 21 4.370114e-01 3.423300e-01 5000.0 1.119031e-01 1.999732e-01
</event>
<event>
4 7 1.0 5000.0 7.905138e-03 7.739137e-02
21 -1 0 0 103 101  0.000000e+00  0.000000e+00  1.550196e+03  1.550196e+03 0.0 0.0 9.0
 2 -1 0 0 101   0  0.000000e+00  0.000000e+00 -4.085825e+03  4.085825e+03 0.0 0.0 9.0
 2  1 1 2 103   0 -1.133528e+03  1.866249e+03 -2.669057e+03  3.448425e+03 0.0022 0.0 9.0
22  1 1 2   0   0  1.133528e+03 -1.866249e+03  1.334276e+02  2.187596e+03 0.0 0.0 9.0
#pdf 21 2 2.384917e-01 6.285885e-01 5000.0 7.705555e-02 4.011166e-04
</event>
<event>
4 7 1.0 5000.0 7.905138e-03 7.739137e-02
 2 -1 0 0 101   0  0.000000e+00  0.000000e+00  2.810533e+03  2.810533e+03 0.0 0.0 9.0
21 -1 0 0 103 101  0.000000e+00  0.000000e+00 -2.160715e+03  2.160715e+03 0.0 0.0 9.0
22  1 1 2   0   0 -7.660269e+02  8.835277e+02 -1.863044e+03  2.199625e+03 0.0 0.0 9.0
 2  1 1 2 103   0  7.660269e+02 -8.835277e+02  2.512862e+03  2.771623e+03 0.0022 0.0 9.0
#pdf 2 21 4.323898e-01 3.324177e-01 5000.0 1.154632e-01 2.109866e-01
</event>
<event>
4 7 1.0 5000.0 7.905138e-03 7.739137e-02
21 -1 0 0 103 101  0.000000e+00  0.000000e+00  3.758437e+03  3.758437e+03 0.0 0.0 9.0
 2 -1 0 0 101   0  0.000000e+00  0.000000e+00 -1.672754e+03  1.672754e+03 0.0 0.0 9.0
 2  1 1 2 103   0  1.878998e+03 -1.608396e+03  5.971229e+02  2.544431e+03 0.0022 0.0 9.0
22  1 1 2   0   0 -1.878998e+03  1.608396e+03  1.488561e+03  2.886760e+03 0.0 0.0 9.0
#pdf 21 2 5.782211e-01 2.573468e-01 5000.0 9.031816e-04 6.090028e-02
</event>
<event>
4 7 1.0 5000.0 7.905138e-03 7.739137e-02
 2 -1 0 0 101   0  0.000000e+00  0.000000e+00  3.278922e+03  3.278922e+03 0.0 0.0 9.0
21 -1 0 0 103 101  0.000000e+00  0.000000e+00 -2.015187e+03  2.015187e+03 0.0 0.0 9.0
22  1 1 2   0   0  4.681053e+02 -1.491626e+03  2.733093e+03  3.148629e+03 0.0 0.0 9.0
 2  1 1 2 103   0 -4.681053e+02  1.491626e+03 -1.469358e+03  2.145479e+03 0.0022 0.0 9.0
#pdf 2 21 5.044496e-01 3.100287e-01 5000.0 6.801250e-02 2.370298e-01
</event>
<event>
4 7 1.0 5000.0 7.905138e-03 7.739137e-02
21 -1 0 0 103 101  0.000000e+00  0.000000e+00  1.985576e+03  1.985576e+03 0.0 0.0 9.0
 2 -1 0 0 101   0  0.000000e+00  0.000000e+00 -3.149101e+03  3.149101e+03 0.0 0.0 9.0
22  1 1 2   0   0 -6.236111e+02  1.762399e+03 -2.286788e+03  2.953699e+03 0.0 0.0 9.0
 2  1 1 2 103   0  6.236111e+02 -1.762399e+03  1.123263e+03  2.180977e+03 0.0022 0.0 9.0
#pdf 21 2 3.054733e-01 4.844770e-01 5000.0 3.371765e-02 3.484086e-03
</event>
<event>
4 7 1.0 5000.0 7.905138e-03 7.739137e-02
 2 -1 0 0 101   0  0.000000e+00  0.000000e+00  1.813548e+03  1.813548e+03 0.0 0.0 9.0
21 -1 0 0 103 101  0.000000e+00  0.000000e+00 -3.464140e+03  3.464140e+03 0.0 0.0 9.0
22  1 1 2   0   0  1.728944e+03  9.888698e+01 -2.732998e+03  3.235476e+03 0.0 0.0 9.0
 2  1 1 2 103   0 -1.728944e+03 -9.888698e+01  1.082406e+03  2.042212e+03 0.0022 0.0 9.0
#pdf 2 21 2.790074e-01 5.329446e-01 5000.0 2.755431e-01 5.377775e-02
</event>
<event>
4 7 1.0 5000.0 7.905138e-03 7.739137e-02
21 -1 0 0 103 101  0.000000e+00  0.000000e+00  3.855162e+03  3.855162e+03 0.0 0.0 9.0
 2 -1 0 0 101   0  0.000000e+00  0.000000e+00 -1.607854e+03  1.607854e+03 0.0 0.0 9.0
22  1 1 2   0   0  6.100398e+02  5.533426e+02  3.701371e+03  3.791897e+03 0.0 0.0 9.0
 2  1 1 2 103   0 -6.100398e+02 -5.533426e+02 -1.454064e+03  1.671119e+03 0.0022 0.0 9.0
#pdf 21 2 5.931018e-01 2.473622e-01 5000.0 7.160321e-04 6.892196e-02
</event>
<event>
4 7 1.0 5000.0 7.905138e-03 7.739137e-02
21 -1 0 0 103 101  0.000000e+00  0.000000e+00  2.538513e+03  2.538513e+03 0.0 0.0 9.0
 2 -1 0 0 101   0  0.000000e+00  0.000000e+00 -2.460616e+03  2.460616e+03 0.0 0.0 9.0
22  1 1 2   0   0 -1.060167e+03  4.880047e+02 -2.171343e+03  2.465123e+03 0.0 0.0 9.0
 2  1 1 2 103   0  1.060167e+03 -4.880047e+02  2.249240e+03  2.534006e+03 0.0022 0.0 9.0
#pdf 21 2 3.905405e-01 3.785563e-01 5000.0 1.180289e-02 1.371990e-02
</event>
<event>
4 7 1.0 5000.0 7.905138e-03 7.739137e-02
 2 -1 0 0 101   0  0.000000e+00  0.000000e+00  3.333386e+03  3.333386e+03 0.0 0.0 9.0
21 -1 0 0 103 101  0.000000e+00  0.000000e+00 -1.533711e+03  1.533711e+03 0.0 0.0 9.0
22  1 1 2   0   0 -1.535075e+03  5.922393e+02 -7.693517e+02  1.816343e+03 0.0 0.0 9.0
 2  1 1 2 103   0  1.535075e+03 -5.922393e+02  2.569026e+03  3.050754e+03 0.0022 0.0 9.0
#pdf 2 21 5.128286e-01 2.359556e-01 5000.0 6.357679e-02 3.325709e-01
</event>
<event>
4 7 1.0 5000.0 7.905138e-03 7.739137e-02
 2 -1 0 0 101   0  0.000000e+00  0.000000e+00  1.454034e+03  1.454034e+03 0.0 0.0 9.0
21 -1 0 0 103 101  0.000000e+00  0.000000e+00 -4.179280e+03  4.179280e+03 0.0 0.0 9.0
22  1 1 2   0   0 -5.330727e+02 -1.014807e+03  1.130983e+03  1.610318e+03 0.0 0.0 9.0
 2  1 1 2 103   0  5.330727e+02  1.014807e+03 -3.856229e+03  4.022997e+03 0.0022 0.0 9.0
#pdf 2 21 2.236976e-01 6.429662e-01 5000.0 3.493506e-01 1.820669e-02
</event>
<event>
4 7 1.0 5000.0 7.905138e-03 7.739137e-02
21 -1 0 0 103 101  0.000000e+00  0.000000e+00  1.702599e+03  1.702599e+03 0.0 0.0 9.0
 2 -1 0 0 101   0  0.000000e+00  0.000000e+00 -3.642204e+03  3.642204e+03 0.0 0.0 9.0
22  1 1 2   0   0  1.953941e+03  1.004515e+03  2.882563e+02  2.215858e+03 0.0 0.0 9.0
 2  1 1 2 103   0 -1.953941e+03 -1.004515e+03 -2.227861e+03  3.128945e+03 0.0022 0.0 9.0
#pdf 21 2 2.619383e-01 5.603390e-01 5000.0 5.749831e-02 1.187280e-03
</event>
<event>
4 7 1.0 5000.0 7.905138e-03 7.739137e-02
 2 -1 0 0 101   0  0.000000e+00  0.000000e+00  1.913932e+03  1.913932e+03 0.0 0.0 9.0
21 -1 0 0 103 101  0.000000e+00  0.000000e+00 -2.350125e+03  2.350125e+03 0.0 0.0 9.0
22  1 1 2   0   0 -8.216212e+01 -2.091069e+03 -5.643803e+02  2.167452e+03 0.0 0.0 9.0
 2  1 1 2 103   0  8.216212e+01  2.091069e+03  1.281865e+02  2.096605e+03 0.0022 0.0 9.0
#pdf 2 21 2.944510e-01 3.615578e-01 5000.0 2.560355e-01 1.795407e-01
</event>
<event>
4 7 1.0 5000.0 7.905138e-03 7.739137e-02
21 -1 0 0 103 101  0.000000e+00  0.000000e+00  5.028770e+03  5.028770e+03 0.0 0.0 9.0
 2 -1 0 0 101   0  0.000000e+00  0.000000e+00 -1.213942e+03  1.213942e+03 0.0 0.0 9.0
 2  1 1 2 103   0  9.604995e+02  1.208920e+03 -5.293825e+02  1.632266e+03 0.0022 0.0 9.0
22  1 1 2   0   0 -9.604995e+02 -1.208920e+03  4.344210e+03  4.610445e+03 0.0 0.0 9.0
#pdf 21 2 7.736568e-01 1.867603e-01 5000.0 2.066683e-05 1.498845e-01
</event>
<event>
4 7 1.0 5000.0 7.905138e-03 7.739137e-02
21 -1 0 0 103 101  0.000000e+00  0.000000e+00  3.273526e+03  3.273526e+03 0.0 0.0 9.0
 2 -1 0 0 101   0  0.000000e+00  0.000000e+00 -2.578995e+03  2.578995e+03 0.0 0.0 9.0
 2  1 1 2 103   0  5.507275e+02  2.690496e+03  1.302880e+03  3.039665e+03 0.0022 0.0 9.0
22  1 1 2   0   0 -5.507275e+02 -2.690496e+03 -6.083494e+02  2.812855e+03 0.0 0.0 9.0
#pdf 21 2 5.036193e-01 3.967684e-01 5000.0 2.680517e-03 1.091420e-02
</event>
<event>
4 7 1.0 5000.0 7.905138e-03 7.739137e-02
 2 -1 0 0 101   0  0.000000e+00  0.000000e+00  1.941675e+03  1.941675e+03 0.0 0.0 9.0
21 -1 0 0 103 101  0.000000e+00  0.000000e+00 -3.202263e+03  3.202263e+03 0.0 0.0 9.0
22  1 1 2   0   0  1.772974e+03 -1.168876e+03 -1.978322e+03  2.902321e+03 0.0 0.0 9.0
 2  1 1 2 103   0 -1.772974e+03  1.168876e+03  7.177338e+02  2.241617e+03 0.0022 0.0 9.0
#pdf 2 21 2.987192e-01 4.926559e-01 5000.0 2.507683e-01 7.461968e-02
</event>
<event>
4 7 1.0 5000.0 7.905138e-03 7.739137e-02
 2 -1 0 0 101   0  0.000000e+00  0.000000e+00  3.392913e+03  3.392913e+03 0.0 0.0 9.0
21 -1 0 0 103 101  0.000000e+00  0.000000e+00 -1.839029e+03  1.839029e+03 0.0 0.0 9.0
22  1 1 2   0   0 -1.318302e+02 -6.719338e+02 -1.738822e+03  1.868790e+03 0.0 0.0 9.0
 2  1 1 2 103   0  1.318302e+02  6.719338e+02  3.292706e+03  3.363152e+03 0.0022 0.0 9.0
#pdf 2 21 5.219866e-01 2.829275e-01 5000.0 5.897017e-02 2.705432e-01
</event>
<event>
4 7 1.0 5000.0 7.905138e-03 7.739137e-02
21 -1 0 0 103 101  0.000000e+00  0.000000e+00  3.611374e+03  3.611374e+03 0.0 0.0 9.0
 2 -1 0 0 101   0  0.000000e+00  0.000000e+00 -1.713069e+03  1.713069e+03 0.0 0.0 9.0
 2  1 1 2 103   0 -6.779208e+02  1.052716e+03  3.249442e+03  3.482336e+03 0.0022 0.0 9.0
22  1 1 2   0   0  6.779208e+02 -1.052716e+03 -1.351137e+03  1.842107e+03 0.0 0.0 9.0
#pdf 21 2 5.555961e-01 2.635490e-01 5000.0 1.273234e-03 5.635861e-02
</event>
<event>
4 7 1.0 5000.0 7.905138e-03 7.739137e-02
 2 -1 0 0 101   0  0.000000e+00  0.000000e+00  1.522132e+03  1.522132e+03 0.0 0.0 9.0
21 -1 0 0 103 101  0.000000e+00  0.000000e+00 -4.216229e+03  4.216229e+03 0.0 0.0 9.0
 2  1 1 2 103   0  1.130363e+03 -1.773987e+03 -2.945919e+03  3.619833e+03 0.0022 0.0 9.0
22  1 1 2   0   0 -1.130363e+03  1.773987e+03  2.518213e+02  2.118529e+03 0.0 0.0 9.0
#pdf 2 21 2.341741e-01 6.486507e-01 5000.0 3.350077e-01 1.705695e-02
</event>
<event>
4 7 1.0 5000.0 7.905138e-03 7.739137e-02
 2 -1 0 0 101   0  0.000000e+00  0.000000e+00  2.231132e+03  2.231132e+03 0.0 0.0 9.0
21 -1 0 0 103 101  0.000000e+00  0.000000e+00 -2.761515e+03  2.761515e+03 0.0 0.0 9.0
 2  1 1 2 103   0 -1.826184e+03  1.587106e+03 -8.228295e+02  2.555563e+03 0.0022 0.0 9.0
22  1 1 2   0   0  1.826184e+03 -1.587106e+03  2.924459e+02  2.437084e+03 0.0 0.0 9.0
#pdf 2 21 3.432510e-01 4.248485e-01 5000.0 1.989656e-01 1.214364e-01
</event>
<event>
4 7 1.0 5000.0 7.905138e-03 7.739137e-02
 2 -1 0 0 101   0  0.000000e+00  0.000000e+00  3.544876e+03  3.544876e+03 0.0 0.0 9.0
21 -1 0 0 103 101  0.000000e+00  0.000000e+00 -1.621247e+03  1.621247e+03 0.0 0.0 9.0
 2  1 1 2 103   0 -1.732795e+03  3.814182e+02 -7.752567e+02  1.936255e+03 0.0022 0.0 9.0
22  1 1 2   0   0  1.732795e+03 -3.814182e+02  2.698886e+03  3.229868e+03 0.0 0.0 9.0
#pdf 2 21 5.453655e-01 2.494226e-01 5000.0 4.829198e-02 3.143771e-01
</event>
<event>
4 7 1.0 5000.0 7.905138e-03 7.739137e-02
21 -1 0 0 103 101  0.000000e+00  0.000000e+00  2.503366e+03  2.503366e+03 0.0 0.0 9.0
 2 -1 0 0 101   0  0.000000e+00  0.000000e+00 -2.196434e+03  2.196434e+03 0.0 0.0 9.0
 2  1 1 2 103   0 -7.905422e+02 -1.143152e+03 -1.739152e+03  2.226298e+03 0.0022 0.0 9.0
22  1 1 2   0   0  7.905422e+02  1.143152e+03  2.046084e+03  2.473502e+03 0.0 0.0 9.0
#pdf 21 2 3.851332e-01 3.379129e-01 5000.0 1.263558e-02 2.263496e-02
</event>
<event>
4 7 1.0 5000.0 7.905138e-03 7.739137e-02
21 -1 0 0 103 101  0.000000e+00  0.000000e+00  2.361772e+03  2.361772e+03 0.0 0.0 9.0
 2 -1 0 0 101   0  0.000000e+00  0.000000e+00 -2.661640e+03  2.661640e+03 0.0 0.0 9.0
 2  1 1 2 103   0 -1.916525e+02 -1.473366e+03 -2.173109e+03  2.632478e+03 0.0022 0.0 9.0
22  1 1 2   0   0  1.916525e+02  1.473366e+03  1.873241e+03  2.390935e+03 0.0 0.0 9.0
#pdf 21 2 3.633496e-01 4.094831e-01 5000.0 1.655465e-02 9.294783e-03
</event>
<event>
4 7 1.0 5000.0 7.905138e-03 7.739137e-02
21 -1 0 0 103 101  0.000000e+00  0.000000e+00  5.000982e+03  5.000982e+03 0.0 0.0 9.0
 2 -1 0 0 101   0  0.000000e+00  0.000000e+00 -1.215066e+03  1.215066e+03 0.0 0.0 9.0
 2  1 1 2 103   0  1.937180e+03 -1.327386e+03  2.838076e+03  3.683653e+03 0.0022 0.0 9.0
22  1 1 2   0   0 -1.937180e+03  1.327386e+03  9.478398e+02  2.532395e+03 0.0 0.0 9.0
#pdf 21 2 7.693818e-01 1.869332e-01 5000.0 2.304706e-05 1.495365e-01
</event>
<event>
4 7 1.0 5000.0 7.905138e-03 7.739137e-02
 2 -1 0 0 101   0  0.000000e+00  0.000000e+00  2.182915e+03  2.182915e+03 0.0 0.0 9.0
21 -1 0 0 103 101  0.000000e+00  0.000000e+00 -2.333951e+03  2.333951e+03 0.0 0.0 9.0
22  1 1 2   0   0 -3.447747e+02 -1.807090e+03 -1.384061e+03  2.302188e+03 0.0 0.0 9.0
 2  1 1 2 103   0  3.447747e+02  1.807090e+03  1.233025e+03  2.214677e+03 0.0022 0.0 9.0
#pdf 2 21 3.358330e-01 3.590694e-01 5000.0 2.071554e-01 1.821130e-01
</event>
<event>
4 7 1.0 5000.0 7.905138e-03 7.739137e-02
21 -1 0 0 103 101  0.000000e+00  0.000000e+00  2.928171e+03  2.928171e+03 0.0 0.0 9.0
 2 -1 0 0 101   0  0.000000e+00  0.000000e+00 -2.177176e+03  2.177176e+03 0.0 0.0 9.0
 2  1 1 2 103   0  1.269463e+02 -2.338099e+03 -5.795186e+02  2.412191e+03 0.0022 0.0 9.0
22  1 1 2   0   0 -1.269463e+02  2.338099e+03  1.330513e+03  2.693156e+03 0.0 0.0 9.0
#pdf 21 2 4.504878e-01 3.349502e-01 5000.0 5.482686e-03 2.347588e-02
</event>
<event>
4 7 1.0 5000.0 7.905138e-03 7.739137e-02
 2 -1 0 0 101   0  0.000000e+00  0.000000e+00  3.638532e+03  3.638532e+03 0.0 0.0 9.0
21 -1 0 0 103 101  0.000000e+00  0.000000e+00 -1.836297e+03  1.836297e+03 0.0 0.0 9.0
 2  1 1 2 103   0  1.048732e+03  1.443157e+03 -1.079820e+03  2.085319e+03 0.0022 0.0 9.0
22  1 1 2   0   0 -1.048732e+03 -1.443157e+03  2.882054e+03  3.389510e+03 0.0 0.0 9.0
#pdf 2 21 5.597741e-01 2.825073e-01 5000.0 4.246261e-02 2.710776e-01
</event>
<event>
4 7 1.0 5000.0 7.905138e-03 7.739137e-02
 2 -1 0 0 101   0  0.000000e+00  0.000000e+00  3.189940e+03  3.189940e+03 0.0 0.0 9.0
21 -1 0 0 103 101  0.000000e+00  0.000000e+00 -1.974088e+03  1.974088e+03 0.0 0.0 9.0
 2  1 1 2 103   0 -2.117420e+03  6.719681e+02  1.808826e+03  2.864762e+03 0.0022 0.0 9.0
22  1 1 2   0   0  2.117420e+03 -6.719681e+02 -5.929735e+02  2.299266e+03 0.0 0.0 9.0
#pdf 2 21 4.907601e-01 3.037058e-01 5000.0 7.572253e-02 2.446655e-01
</event>
<event>
4 7 1.0 5000.0 7.905138e-03 7.739137e-02
21 -1 0 0 103 101  0.000000e+00  0.000000e+00  3.423490e+03  3.423490e+03 0.0 0.0 9.0
 2 -1 0 0 101   0  0.000000e+00  0.000000e+00 -1.928146e+03  1.928146e+03 0.0 0.0 9.0
 2  1 1 2 103   0  2.190582e+03 -5.868875e+02  2.005196e+03  3.027193e+03 0.0022 0.0 9.0
22  1 1 2   0   0 -2.190582e+03  5.868875e+02 -5.098511e+02  2.324443e+03 0.0 0.0 9.0
#pdf 21 2 5.266908e-01 2.966378e-01 5000.0 1.939278e-03 3.756547e-02
</event>
<event>
4 7 1.0 5000.0 7.905138e-03 7.739137e-02
 2 -1 0 0 101   0  0.000000e+00  0.000000e+00  1.765560e+03  1.765560e+03 0.0 0.0 9.0
21 -1 0 0 103 101  0.000000e+00  0.000000e+00 -3.010779e+03  3.010779e+03 0.0 0.0 9.0
 2  1 1 2 103   0 -7.363741e+02  2.125191e+03 -9.747197e+01  2.251263e+03 0.0022 0.0 9.0
22  1 1 2   0   0  7.363741e+02 -2.125191e+03 -1.147747e+03  2.525076e+03 0.0 0.0 9.0
#pdf 2 21 2.716246e-01 4.631967e-01 5000.0 2.850730e-01 9.306174e-02
</event>
<event>
4 7 1.0 5000.0 7.905138e-03 7.739137e-02
21 -1 0 0 103 101  0.000000e+00  0.000000e+00  2.043965e+03  2.043965e+03 0.0 0.0 9.0
 2 -1 0 0 101   0  0.000000e+00  0.000000e+00 -2.914939e+03  2.914939e+03 0.0 0.0 9.0
 2  1 1 2 103   0  1.019372e+03 -2.166911e+03 -9.156141e+02  2.563781e+03 0.0022 0.0 9.0
22  1 1 2   0   0 -1.019372e+03  2.166911e+03  4.464021e+01  2.395123e+03 0.0 0.0 9.0
#pdf 21 2 3.144562e-01 4.484522e-01 5000.0 3.018385e-02 5.627660e-03
</event>
<event>
4 7 1.0 5000.0 7.905138e-03 7.739137e-02
 2 -1 0 0 101   0  0.000000e+00  0.000000e+00  3.228611e+03  3.228611e+03 0.0 0.0 9.0
21 -1 0 0 103 101  0.000000e+00  0.000000e+00 -2.119400e+03  2.119400e+03 0.0 0.0 9.0
22  1 1 2   0   0 -8.270239e+02  2.416595e+03 -2.258501e+01  2.554293e+03 0.0 0.0 9.0
 2  1 1 2 103   0  8.270239e+02 -2.416595e+03  1.131796e+03  2.793719e+03 0.0022 0.0 9.0
#pdf 2 21 4.967094e-01 3.260616e-01 5000.0 7.229971e-02 2.182259e-01
</event>
<event>
4 7 1.0 5000.0 7.905138e-03 7.739137e-02
21 -1 0 0 103 101  0.000000e+00  0.000000e+00  2.141908e+03  2.141908e+03 0.0 0.0 9.0
 2 -1 0 0 101   0  0.000000e+00  0.000000e+00 -2.792391e+03  2.792391e+03 0.0 0.0 9.0
 2  1 1 2 103   0 -2.325385e+03 -4.191239e+02 -9.616394e+02  2.551045e+03 0.0022 0.0 9.0
22  1 1 2   0   0  2.325385e+03  4.191239e+02  3.111561e+02  2.383254e+03 0.0 0.0 9.0
#pdf 21 2 3.295243e-01 4.295986e-01 5000.0 2.509198e-02 7.187881e-03
</event>
<event>
4 7 1.0 5000.0 7.905138e-03 7.739137e-02
21 -1 0 0 103 101  0.000000e+00  0.000000e+00  2.757177e+03  2.757177e+03 0.0 0.0 9.0
 2 -1 0 0 101   0  0.000000e+00  0.000000e+00 -2.281939e+03  2.281939e+03 0.0 0.0 9.0
22  1 1 2   0   0 -5.162797e+02 -3.334363e+02  2.680375e+03  2.749934e+03 0.0 0.0 9.0
 2  1 1 2 103   0  5.162797e+02  3.334363e+02 -2.205137e+03  2.289182e+03 0.0022 0.0 9.0
#pdf 21 2 4.241811e-01 3.510675e-01 5000.0 7.706885e-03 1.926425e-02
</event>
<event>
4 7 1.0 5000.0 7.905138e-03 7.739137e-02
21 -1 0 0 103 101  0.000000e+00  0.000000e+00  3.053064e+03  3.053064e+03 0.0 0.0 9.0
 2 -1 0 0 101   0  0.000000e+00  0.000000e+00 -1.994959e+03  1.994959e+03 0.0 0.0 9.0
 2  1 1 2 103   0 -4.053053e+02 -4.644523e+02  2.973062e+03  3.036295e+03 0.0022 0.0 9.0
22  1 1 2   0   0  4.053053e+02  4.644523e+02 -1.914957e+03  2.011728e+03 0.0 0.0 9.0
#pdf 21 2 4.697022e-01 3.069167e-01 5000.0 4.251629e-03 3.312891e-02
</event>
<event>
4 7 1.0 5000.0 7.905138e-03 7.739137e-02
 2 -1 0 0 101   0  0.000000e+00  0.000000e+00  1.938464e+03  1.938464e+03 0.0 0.0 9.0
21 -1 0 0 103 101  0.000000e+00  0.000000e+00 -3.474283e+03  3.474283e+03 0.0 0.0 9.0
22  1 1 2   0   0  2.309688e+01 -1.891662e+03  1.084704e+03  2.180711e+03 0.0 0.0 9.0
 2  1 1 2 103   0 -2.309688e+01  1.891662e+03 -2.620522e+03  3.232036e+03 0.0022 0.0 9.0
#pdf 2 21 2.982253e-01 5.345051e-01 5000.0 2.513741e-01 5.306299e-02
</event>
<event>
4 7 1.0 5000.0 7.905138e-03 7.739137e-02
21 -1 0 0 103 101  0.000000e+00  0.000000e+00  3.039304e+03  3.039304e+03 0.0 0.0 9.0
 2 -1 0 0 101   0  0.000000e+00  0.000000e+00 -2.042891e+03  2.042891e+03 0.0 0.0 9.0
 2  1 1 2 103   0  1.586251e+03 -8.450923e+01  2.456004e+03  2.924942e+03 0.0022 0.0 9.0
22  1 1 2   0   0 -1.586251e+03  8.450923e+01 -1.459591e+03  2.157253e+03 0.0 0.0 9.0
#pdf 21 2 4.675852e-01 3.142909e-01 5000.0 4.373048e-03 3.024566e-02
</event>
<event>
4 7 1.0 5000.0 7.905138e-03 7.739137e-02
 2 -1 0 0 101   0  0.000000e+00  0.000000e+00  3.110136e+03  3.110136e+03 0.0 0.0 9.0
21 -1 0 0 103 101  0.000000e+00  0.000000e+00 -1.990865e+03  1.990865e+03 0.0 0.0 9.0
 2  1 1 2 103   0  6.185363e+02  8.848637e+02  2.857575e+03  3.054719e+03 0.0022 0.0 9.0
22  1 1 2   0   0 -6.185363e+02 -8.848637e+02 -1.738304e+03  2.046282e+03 0.0 0.0 9.0
#pdf 2 21 4.784825e-01 3.062869e-01 5000.0 8.314085e-02 2.415323e-01
</event>
<event>
4 7 1.0 5000.0 7.905138e-03 7.739137e-02
 2 -1 0 0 101   0  0.000000e+00  0.000000e+00  3.565101e+03  3.565101e+03 0.0 0.0 9.0
21 -1 0 0 103 101  0.000000e+00  0.000000e+00 -1.762115e+03  1.762115e+03 0.0 0.0 9.0
 2  1 1 2 103   0  2.223842e+03  9.228389e+02  1.613860e+02  2.413120e+03 0.0022 0.0 9.0
22  1 1 2   0   0 -2.223842e+03 -9.228389e+02  1.641600e+03  2.914096e+03 0.0 0.0 9.0
#pdf 2 21 5.484770e-01 2.710947e-01 5000.0 4.697967e-02 2.857622e-01
</event>
<event>
4 7 1.0 5000.0 7.905138e-03 7.739137e-02
 2 -1 0 0 101   0  0.000000e+00  0.000000e+00  3.127396e+03  3.127396e+03 0.0 0.0 9.0
21 -1 0 0 103 101  0.000000e+00  0.000000e+00 -1.996860e+03  1.996860e+03 0.0 0.0 9.0
22  1 1 2   0   0 -7.270840e+02  1.813229e+03  2.163009e+03  2.914629e+03 0.0 0.0 9.0
 2  1 1 2 103   0  7.270840e+02 -1.813229e+03 -1.032474e+03  2.209628e+03 0.0022 0.0 9.0
#pdf 2 21 4.811379e-01 3.072093e-01 5000.0 8.149505e-02 2.404180e-01
</event>
<event>
4 7 1.0 5000.0 7.905138e-03 7.739137e-02
21 -1 0 0 103 101  0.000000e+00  0.000000e+00  2.216741e+03  2.216741e+03 0.0 0.0 9.0
 2 -1 0 0 101   0  0.000000e+00  0.000000e+00 -2.643069e+03  2.643069e+03 0.0 0.0 9.0
 2  1 1 2 103   0  1.387971e+03 -8.120521e+02  1.603011e+03  2.270581e+03 0.0022 0.0 9.0
22  1 1 2   0   0 -1.387971e+03  8.120521e+02 -2.029339e+03  2.589230e+03 0.0 0.0 9.0
#pdf 21 2 3.410371e-01 4.066261e-01 5000.0 2.178458e-02 9.638860e-03
</event>
<event>
4 7 1.0 5000.0 7.905138e-03 7.739137e-02
21 -1 0 0 103 101  0.000000e+00  0.000000e+00  2.176911e+03  2.176911e+03 0.0 0.0 9.0
 2 -1 0 0 101   0  0.000000e+00  0.000000e+00 -2.871395e+03  2.871395e+03 0.0 0.0 9.0
22  1 1 2   0   0 -1.977693e+03  1.482203e+03 -7.284597e+02  2.576596e+03 0.0 0.0 9.0
 2  1 1 2 103   0  1.977693e+03 -1.482203e+03  3.397525e+01  2.471710e+03 0.0022 0.0 9.0
#pdf 21 2 3.349094e-01 4.417531e-01 5000.0 2.348767e-02 6.148040e-03
</event>
<event>
4 7 1.0 5000.0 7.905138e-03 7.739137e-02
21 -1 0 0 103 101  0.000000e+00  0.000000e+00  2.202535e+03  2.202535e+03 0.0 0.0 9.0
 2 -1 0 0 101   0  0.000000e+00  0.000000e+00 -2.868851e+03  2.868851e+03 0.0 0.0 9.0
 2  1 1 2 103   0 -2.893503e+02 -1.773894e+03  1.439572e+03  2.302779e+03 0.0022 0.0 9.0
22  1 1 2   0   0  2.893503e+02  1.773894e+03 -2.105887e+03  2.768607e+03 0.0 0.0 9.0
#pdf 21 2 3.388515e-01 4.413616e-01 5000.0 2.237564e-02 6.179722e-03
</event>
<event>
4 7 1.0 5000.0 7.905138e-03 7.739137e-02
 2 -1 0 0 101   0  0.000000e+00  0.000000e+00  1.764113e+03  1.764113e+03 0.0 0.0 9.0
21 -1 0 0 103 101  0.000000e+00  0.000000e+00 -3.610575e+03  3.610575e+03 0.0 0.0 9.0
22  1 1 2   0   0 -1.761188e+03 -1.055462e+03  6.394203e+02  2.150498e+03 0.0 0.0 9.0
 2  1 1 2 103   0  1.761188e+03  1.055462e+03 -2.485883e+03  3.224190e+03 0.0022 0.0 9.0
#pdf 2 21 2.714020e-01 5.554731e-01 5000.0 2.853625e-01 4.414083e-02
</event>
<event>
4 7 1.0 5000.0 7.905138e-03 7.739137e-02
21 -1 0 0 103 101  0.000000e+00  0.000000e+00  2.998682e+03  2.998682e+03 0.0 0.0 9.0
 2 -1 0 0 101   0  0.000000e+00  0.000000e+00 -2.046752e+03  2.046752e+03 0.0 0.0 9.0
 2  1 1 2 103   0  1.307751e+03  1.883274e+03 -4.796119e+02  2.342427e+03 0.0022 0.0 9.0
22  1 1 2   0   0 -1.307751e+03 -1.883274e+03  1.431542e+03  2.703007e+03 0.0 0.0 9.0
#pdf 21 2 4.613357e-01 3.148849e-01 5000.0 4.750309e-03 3.002414e-02
</event>
<event>
4 7 1.0 5000.0 7.905138e-03 7.739137e-02
21 -1 0 0 103 101  0.000000e+00  0.000000e+00  2.455967e+03  2.455967e+03 0.0 0.0 9.0
 2 -1 0 0 101   0  0.000000e+00  0.000000e+00 -2.522950e+03  2.522950e+03 0.0 0.0 9.0
22  1 1 2   0   0 -7.349572e+02 -2.178222e+03 -9.882863e+02  2.502303e+03 0.0 0.0 9.0
 2  1 1 2 103   0  7.349572e+02  2.178222e+03  9.213034e+02  2.476613e+03 0.0022 0.0 9.0
#pdf 21 2 3.778411e-01 3.881461e-01 5000.0 1.384201e-02 1.216452e-02
</event>
<event>
4 7 1.0 5000.0 7.905138e-03 7.739137e-02
 2 -1 0 0 101   0  0.000000e+00  0.000000e+00  1.490379e+03  1.490379e+03 0.0 0.0 9.0
21 -1 0 0 103 101  0.000000e+00  0.000000e+00 -4.312540e+03  4.312540e+03 0.0 0.0 9.0
 2  1 1 2 103   0  9.583110e+02  6.618576e+02 -3.988257e+03  4.154830e+03 0.0022 0.0 9.0
22  1 1 2   0   0 -9.583110e+02 -6.618576e+02  1.166096e+03  1.648089e+03 0.0 0.0 9.0
#pdf 2 21 2.292890e-01 6.634677e-01 5000.0 3.417036e-01 1.430812e-02
</event>
<event>
4 7 1.0 5000.0 7.905138e-03 7.739137e-02
21 -1 0 0 103 101  0.000000e+00  0.000000e+00  1.975110e+03  1.975110e+03 0.0 0.0 9.0
 2 -1 0 0 101   0  0.000000e+00  0.000000e+00 -2.911349e+03  2.911349e+03 0.0 0.0 9.0
 2  1 1 2 103   0 -7.427188e+02 -1.827141e+03 -1.857741e+03  2.709479e+03 0.0022 0.0 9.0
22  1 1 2   0   0  7.427188e+02  1.827141e+03  9.215023e+02  2.176980e+03 0.0 0.0 9.0
#pdf 21 2 3.038631e-01 4.478998e-01 5000.0 3.438179e-02 5.667612e-03
</event>
<event>
4 7 1.0 5000.0 7.905138e-03 7.739137e-02
 2 -1 0 0 101   0  0.000000e+00  0.000000e+00  3.133357e+03  3.133357e+03 0.0 0.0 9.0
21 -1 0 0 103 101  0.000000e+00  0.000000e+00 -2.007923e+03  2.007923e+03 0.0 0.0 9.0
22  1 1 2   0   0 -1.610649e+03  1.917260e+03  7.128586e+02  2.603506e+03 0.0 0.0 9.0
 2  1 1 2 103   0  1.610649e+03 -1.917260e+03  4.125759e+02  2.537774e+03 0.0022 0.0 9.0
#pdf 2 21 4.820549e-01 3.089112e-01 5000.0 8.093227e-02 2.383696e-01
</event>
<event>
4 7 1.0 5000.0 7.905138e-03 7.739137e-02
21 -1 0 0 103 101  0.000000e+00  0.000000e+00  3.109958e+03  3.109958e+03 0.0 0.0 9.0
 2 -1 0 0 101   0  0.000000e+00  0.000000e+00 -1.992943e+03  1.992943e+03 0.0 0.0 9.0
22  1 1 2   0   0 -1.685239e+03  1.550465e+03 -4.424964e+02  2.332332e+03 0.0 0.0 9.0
 2  1 1 2 103   0  1.685239e+03 -1.550465e+03  1.559512e+03  2.770568e+03 0.0022 0.0 9.0
#pdf 21 2 4.784551e-01 3.066065e-01 5000.0 3.780573e-03 3.325486e-02
</event>
<event>
4 7 1.0 5000.0 7.905138e-03 7.739137e-02
 2 -1 0 0 101   0  0.000000e+00  0.000000e+00  2.461919e+03  2.461919e+03 0.0 0.0 9.0
21 -1 0 0 103 101  0.000000e+00  0.000000e+00 -2.465830e+03  2.465830e+03 0.0 0.0 9.0
 2  1 1 2 103   0  2.451690e+03 -2.018896e+02  1.363591e+02  2.463764e+03 0.0022 0.0 9.0
22  1 1 2   0   0 -2.451690e+03  2.018896e+02 -1.402697e+02  2.463984e+03 0.0 0.0 9.0
#pdf 2 21 3.787568e-01 3.793584e-01 5000.0 1.623630e-01 1.617812e-01
</event>
<event>
4 7 1.0 5000.0 7.905138e-03 7.739137e-02
21 -1 0 0 103 101  0.000000e+00  0.000000e+00  4.099923e+03  4.099923e+03 0.0 0.0 9.0
 2 -1 0 0 101   0  0.000000e+00  0.000000e+00 -1.458380e+03  1.458380e+03 0.0 0.0 9.0
22  1 1 2   0   0  2.336318e+03 -3.188330e+02  5.848971e+02  2.429433e+03 0.0 0.0 9.0
 2  1 1 2 103   0 -2.336318e+03  3.188330e+02  2.056645e+03  3.128870e+03 0.0022 0.0 9.0
#pdf 21 2 6.307573e-01 2.243662e-01 5000.0 3.865991e-04 9.198816e-02
</event>
<event>
4 7 1.0 5000.0 7.905138e-03 7.739137e-02
 2 -1 0 0 101   0  0.000000e+00  0.000000e+00  2.757788e+03  2.757788e+03 0.0 0.0 9.0
21 -1 0 0 103 101  0.000000e+00  0.000000e+00 -2.251610e+03  2.251610e+03 0.0 0.0 9.0
22  1 1 2   0   0  3.345241e+01  2.409541e+03  8.907488e+02  2.569132e+03 0.0 0.0 9.0
 2  1 1 2 103   0 -3.345241e+01 -2.409541e+03 -3.845709e+02  2.440266e+03 0.0022 0.0 9.0
#pdf 2 21 4.242751e-01 3.464016e-01 5000.0 1.218994e-01 1.955400e-01
</event>
<event>
4 7 1.0 5000.0 7.905138e-03 7.739137e-02
21 -1 0 0 103 101  0.000000e+00  0.000000e+00  2.743554e+03  2.743554e+03 0.0 0.0 9.0
 2 -1 0 0 101   0  0.000000e+00  0.000000e+00 -2.295279e+03  2.295279e+03 0.0 0.0 9.0
22  1 1 2   0   0 -1.081609e+03  1.965637e+03  1.352719e+03  2.619820e+03 0.0 0.0 9.0
 2  1 1 2 103   0  1.081609e+03 -1.965637e+03 -9.044435e+02  2.419013e+03 0.0022 0.0 9.0
#pdf 21 2 4.220853e-01 3.531199e-01 5000.0 7.916631e-03 1.877999e-02
</event>
<event>
4 7 1.0 5000.0 7.905138e-03 7.739137e-02
 2 -1 0 0 101   0  0.000000e+00  0.000000e+00  1.779862e+03  1.779862e+03 0.0 0.0 9.0
21 -1 0 0 103 101  0.000000e+00  0.000000e+00 -3.502081e+03  3.502081e+03 0.0 0.0 9.0
 2  1 1 2 103   0  9.386281e+02 -2.292969e+03 -1.186277e+03  2.746995e+03 0.0022 0.0 9.0
22  1 1 2   0   0 -9.386281e+02  2.292969e+03 -5.359426e+02  2.534948e+03 0.0 0.0 9.0
#pdf 2 21 2.738249e-01 5.387818e-01 5000.0 2.822184e-01 5.113911e-02
</event>
<event>
4 7 1.0 5000.0 7.905138e-03 7.739137e-02
 2 -1 0 0 101   0  0.000000e+00  0.000000e+00  2.717212e+03  2.717212e+03 0.0 0.0 9.0
21 -1 0 0 103 101  0.000000e+00  0.000000e+00 -2.177357e+03  2.177357e+03 0.0 0.0 9.0
22  1 1 2   0   0  2.090479e+03  9.088927e+01  1.517693e+03  2.584909e+03 0.0 0.0 9.0
 2  1 1 2 103   0 -2.090479e+03 -9.088927e+01 -9.778379e+02  2.309660e+03 0.0022 0.0 9.0
#pdf 2 21 4.180327e-01 3.349780e-01 5000.0 1.270180e-01 2.081105e-01
</event>
<event>
4 7 1.0 5000.0 7.905138e-03 7.739137e-02
21 -1 0 0 103 101  0.000000e+00  0.000000e+00  1.792200e+03  1.792200e+03 0.0 0.0 9.0
 2 -1 0 0 101   0  0.000000e+00  0.000000e+00 -3.636193e+03  3.636193e+03 0.0 0.0 9.0
22  1 1 2   0   0 -7.288267e+02 -1.234398e+03  1.323863e+03  1.951292e+03 0.0 0.0 9.0
 2  1 1 2 103   0  7.288267e+02  1.234398e+03 -3.167856e+03  3.477102e+03 0.0022 0.0 9.0
#pdf 21 2 2.757231e-01 5.594144e-01 5000.0 4.851086e-02 1.203760e-03
</event>
<event>
4 7 1.0 5000.0 7.905138e-03 7.739137e-02
 2 -1 0 0 101   0  0.000000e+00  0.000000e+00  4.220295e+03  4.220295e+03 0.0 0.0 9.0
21 -1 0 0 103 101  0.000000e+00  0.000000e+00 -1.482142e+03  1.482142e+03 0.0 0.0 9.0
 2  1 1 2 103   0  1.096578e+03  1.537359e+02  3.925620e+03  4.078800e+03 0.0022 0.0 9.0
22  1 1 2   0   0 -1.096578e+03 -1.537359e+02 -1.187467e+03  1.623636e+03 0.0 0.0 9.0
#pdf 2 21 6.492762e-01 2.280218e-01 5000.0 1.693436e-02 3.434389e-01
</event>
<event>
4 7 1.0 5000.0 7.905138e-03 7.739137e-02
 2 -1 0 0 101   0  0.000000e+00  0.000000e+00  3.552506e+03  3.552506e+03 0.0 0.0 9.0
21 -1 0 0 103 101  0.000000e+00  0.000000e+00 -1.773277e+03  1.773277e+03 0.0 0.0 9.0
 2  1 1 2 103   0  5.489211e+02 -2.106137e+03  2.215790e+03  3.105938e+03 0.0022 0.0 9.0
22  1 1 2   0   0 -5.489211e+02  2.106137e+03 -4.365617e+02  2.219845e+03 0.0 0.0 9.0
#pdf 2 21 5.465394e-01 2.728119e-01 5000.0 4.779507e-02 2.835312e-01
</event>
<event>
4 7 1.0 5000.0 7.905138e-03 7.739137e-02
 2 -1 0 0 101   0  0.000000e+00  0.000000e+00  2.311613e+03  2.311613e+03 0.0 0.0 9.0
21 -1 0 0 103 101  0.000000e+00  0.000000e+00 -2.664974e+03  2.664974e+03 0.0 0.0 9.0
22  1 1 2   0   0 -5.349377e+02  2.352180e+03  4.091601e+02  2.446696e+03 0.0 0.0 9.0
 2  1 1 2 103   0  5.349377e+02 -2.352180e+03 -7.625209e+02  2.529891e+03 0.0022 0.0 9.0
#pdf 2 21 3.556328e-01 4.099960e-01 5000.0 1.857000e-01 1.338098e-01
</event>
<event>
4 7 1.0 5000.0 7.905138e-03 7.739137e-02
 2 -1 0 0 101   0  0.000000e+00  0.000000e+00  3.579121e+03  3.579121e+03 0.0 0.0 9.0
21 -1 0 0 103 101  0.000000e+00  0.000000e+00 -1.766172e+03  1.766172e+03 0.0 0.0 9.0
22  1 1 2   0   0  6.975380e+02 -9.237851e+01 -1.659377e+03  1.802394e+03 0.0 0.0 9.0
 2  1 1 2 103   0 -6.975380e+02  9.237851e+01  3.472325e+03  3.542899e+03 0.0022 0.0 9.0
#pdf 2 21 5.506339e-01 2.717188e-01 5000.0 4.608291e-02 2.849505e-01
</event>
<event>
4 7 1.0 5000.0 7.905138e-03 7.739137e-02
 2 -1 0 0 101   0  0.000000e+00  0.000000e+00  1.797906e+03  1.797906e+03 0.0 0.0 9.0
21 -1 0 0 103 101  0.000000e+00  0.000000e+00 -3.388029e+03  3.388029e+03 0.0 0.0 9.0
 2  1 1 2 103   0 -1.800552e+03 -1.232969e+03  4.161729e+02  2.221576e+03 0.0022 0.0 9.0
22  1 1 2   0   0  1.800552e+03  1.232969e+03 -2.006296e+03  2.964359e+03 0.0 0.0 9.0
#pdf 2 21 2.766009e-01 5.212352e-01 5000.0 2.786338e-01 5.933843e-02
</event>
<event>
4 7 1.0 5000.0 7.905138e-03 7.739137e-02
 2 -1 0 0 101   0  0.000000e+00  0.000000e+00  3.266347e+03  3.266347e+03 0.0 0.0 9.0
21 -1 0 0 103 101  0.000000e+00  0.000000e+00 -2.099866e+03  2.099866e+03 0.0 0.0 9.0
22  1 1 2   0   0 -2.196640e+03 -1.365673e+03  1.625717e+02  2.591664e+03 0.0 0.0 9.0
 2  1 1 2 103   0  2.196640e+03  1.365673e+03  1.003909e+03  2.774549e+03 0.0022 0.0 9.0
#pdf 2 21 5.025149e-01 3.230564e-01 5000.0 6.906685e-02 2.216941e-01
</event>
<event>
4 7 1.0 5000.0 7.905138e-03 7.739137e-02
 2 -1 0 0 101   0  0.000000e+00  0.000000e+00  3.461163e+03  3.461163e+03 0.0 0.0 9.0
21 -1 0 0 103 101  0.000000e+00  0.000000e+00 -1.863387e+03  1.863387e+03 0.0 0.0 9.0
22  1 1 2   0   0  1.855917e+03  6.783766e+02 -8.734445e+02  2.160447e+03 0.0 0.0 9.0
 2  1 1 2 103   0 -1.855917e+03 -6.783766e+02  2.471220e+03  3.164103e+03 0.0022 0.0 9.0
#pdf 2 21 5.324866e-01 2.866750e-01 5000.0 5.398864e-02 2.657901e-01
</event>
<event>
4 7 1.0 5000.0 7.905138e-03 7.739137e-02
21 -1 0 0 103 101  0.000000e+00  0.000000e+00  1.516170e+03  1.516170e+03 0.0 0.0 9.0
 2 -1 0 0 101   0  0.000000e+00  0.000000e+00 -3.818868e+03  3.818868e+03 0.0 0.0 9.0
 2  1 1 2 103   0  1.377666e+03 -1.712834e+03 -6.613639e+01  2.199122e+03 0.0022 0.0 9.0
22  1 1 2   0   0 -1.377666e+03  1.712834e+03 -2.236562e+03  3.135916e+03 0.0 0.0 9.0
#pdf 21 2 2.332569e-01 5.875182e-01 5000.0 8.223079e-02 7.820300e-04
</event>
<event>
4 7 1.0 5000.0 7.905138e-03 7.739137e-02
 2 -1 0 0 101   0  0.000000e+00  0.000000e+00  2.458309e+03  2.458309e+03 0.0 0.0 9.0
21 -1 0 0 103 101  0.000000e+00  0.000000e+00 -2.557545e+03  2.557545e+03 0.0 0.0 9.0
 2  1 1 2 103   0  1.477989e+03  1.676137e+03 -1.187097e+03  2.530432e+03 0.0022 0.0 9.0
22  1 1 2   0   0 -1.477989e+03 -1.676137e+03  1.087861e+03  2.485423e+03 0.0 0.0 9.0
#pdf 2 21 3.782014e-01 3.934685e-01 5000.0 1.629011e-01 1.484964e-01
</event>
<event>
4 7 1.0 5000.0 7.905138e-03 7.739137e-02
21 -1 0 0 103 101  0.000000e+00  0.000000e+00  1.530615e+03  1.530615e+03 0.0 0.0 9.0
 2 -1 0 0 101   0  0.000000e+00  0.000000e+00 -4.072807e+03  4.072807e+03 0.0 0.0 9.0
22  1 1 2   0   0  1.055818e+03 -1.921036e+03 -2.612390e+03  3.410237e+03 0.0 0.0 9.0
 2  1 1 2 103   0 -1.055818e+03  1.921036e+03  7.019790e+01  2.193185e+03 0.0022 0.0 9.0
#pdf 21 2 2.354792e-01 6.265857e-01 5000.0 7.999420e-02 4.150051e-04
</event>
<event>
4 7 1.0 5000.0 7.905138e-03 7.739137e-02
21 -1 0 0 103 101  0.000000e+00  0.000000e+00  2.484715e+03  2.484715e+03 0.0 0.0 9.0
 2 -1 0 0 101   0  0.000000e+00  0.000000e+00 -3.243673e+03  3.243673e+03 0.0 0.0 9.0
22  1 1 2   0   0  1.684356e+02  2.239186e+03 -2.131960e+03  3.096381e+03 0.0 0.0 9.0
 2  1 1 2 103   0 -1.684356e+02 -2.239186e+03  1.373002e+03  2.632007e+03 0.0022 0.0 9.0
#pdf 21 2 3.822639e-01 4.990266e-01 5000.0 1.309969e-02 2.856627e-03
</event>
<event>
4 7 1.0 5000.0 7.905138e-03 7.739137e-02
 2 -1 0 0 101   0  0.000000e+00  0.000000e+00  1.541626e+03  1.541626e+03 0.0 0.0 9.0
21 -1 0 0 103 101  0.000000e+00  0.000000e+00 -3.778972e+03  3.778972e+03 0.0 0.0 9.0
22  1 1 2   0   0  8.533432e+02  1.944403e+03 -2.383481e+03  3.192159e+03 0.0 0.0 9.0
 2  1 1 2 103   0 -8.533432e+02 -1.944403e+03  1.461351e+02  2.128439e+03 0.0022 0.0 9.0
#pdf 2 21 2.371732e-01 5.813803e-01 5000.0 3.309090e-01 3.467310e-02
</event>
<event>
4 7 1.0 5000.0 7.905138e-03 7.739137e-02
 2 -1 0 0 101   0  0.000000e+00  0.000000e+00  3.274903e+03  3.274903e+03 0.0 0.0 9.0
21 -1 0 0 103 101  0.000000e+00  0.000000e+00 -1.914005e+03  1.914005e+03 0.0 0.0 9.0
22  1 1 2   0   0  2.137546e+03 -2.651941e+02 -6.420717e+02  2.247596e+03 0.0 0.0 9.0
 2  1 1 2 103   0 -2.137546e+03  2.651941e+02  2.002970e+03  2.941312e+03 0.0022 0.0 9.0
#pdf 2 21 5.038313e-01 2.944623e-01 5000.0 6.834821e-02 2.560215e-01
</event>
<event>
4 7 1.0 5000.0 7.905138e-03 7.739137e-02
 2 -1 0 0 101   0  0.000000e+00  0.000000e+00  2.074879e+03  2.074879e+03 0.0 0.0 9.0
21 -1 0 0 103 101  0.000000e+00  0.000000e+00 -2.927774e+03  2.927774e+03 0.0 0.0 9.0
 2  1 1 2 103   0  1.379696e+03 -1.591586e+03 -1.725335e+03  2.722772e+03 0.0022 0.0 9.0
22  1 1 2   0   0 -1.379696e+03  1.591586e+03  8.724397e+02  2.279881e+03 0.0 0.0 9.0
#pdf 2 21 3.192122e-01 4.504268e-01 5000.0 2.261685e-01 1.019556e-01
</event>
<event>
4 7 1.0 5000.0 7.905138e-03 7.739137e-02
21 -1 0 0 103 101  0.000000e+00  0.000000e+00  4.088572e+03  4.088572e+03 0.0 0.0 9.0
 2 -1 0 0 101   0  0.000000e+00  0.000000e+00 -1.553148e+03  1.553148e+03 0.0 0.0 9.0
22  1 1 2   0   0  7.643270e+02 -6.432328e+02  3.857451e+03  3.984704e+03 0.0 0.0 9.0
 2  1 1 2 103   0 -7.643270e+02  6.432328e+02 -1.322027e+03  1.657016e+03 0.0022 0.0 9.0
#pdf 21 2 6.290110e-01 2.389459e-01 5000.0 3.982466e-04 7.662030e-02
</event>
<event>
4 7 1.0 5000.0 7.905138e-03 7.739137e-02
 2 -1 0 0 101   0  0.000000e+00  0.000000e+00  2.654566e+03  2.654566e+03 0.0 0.0 9.0
21 -1 0 0 103 101  0.000000e+00  0.000000e+00 -2.489405e+03  2.489405e+03 0.0 0.0 9.0
 2  1 1 2 103   0  1.272771e+03  2.182171e+03  5.587181e+02  2.587273e+03 0.0022 0.0 9.0
22  1 1 2   0   0 -1.272771e+03 -2.182171e+03 -3.935568e+02  2.556697e+03 0.0 0.0 9.0
#pdf 2 21 4.083947e-01 3.829853e-01 5000.0 1.351890e-01 1.582992e-01
</event>
<event>
4 7 1.0 5000.0 7.905138e-03 7.739137e-02
21 -1 0 0 103 101  0.000000e+00  0.000000e+00  2.367588e+03  2.367588e+03 0.0 0.0 9.0
 2 -1 0 0 101   0  0.000000e+00  0.000000e+00 -2.779255e+03  2.779255e+03 0.0 0.0 9.0
22  1 1 2   0   0  4.069284e+02 -1.233236e+03 -2.425108e+03  2.750929e+03 0.0 0.0 9.0
 2  1 1 2 103   0 -4.069284e+02  1.233236e+03  2.013441e+03  2.395915e+03 0.0022 0.0 9.0
#pdf 21 2 3.642444e-01 4.275778e-01 5000.0 1.637307e-02 7.376960e-03
</event>
<event>
4 7 1.0 5000.0 7.905138e-03 7.739137e-02
21 -1 0 0 103 101  0.000000e+00  0.000000e+00  3.690838e+03  3.690838e+03 0.0 0.0 9.0
 2 -1 0 0 101   0  0.000000e+00  0.000000e+00 -1.689942e+03  1.689942e+03 0.0 0.0 9.0
22  1 1 2   0   0 -3.860260e+02  1.948748e+03  2.630862e+03  3.296676e+03 0.0 0.0 9.0
 2  1 1 2 103   0  3.860260e+02 -1.948748e+03 -6.299665e+02  2.084105e+03 0.0022 0.0 9.0
#pdf 21 2 5.678213e-01 2.599911e-01 5000.0 1.059783e-03 5.891450e-02
</event>
<event>
4 7 1.0 5000.0 7.905138e-03 7.739137e-02
21 -1 0 0 103 101  0.000000e+00  0.000000e+00  3.059187e+03  3.059187e+03 0.0 0.0 9.0
 2 -1 0 0 101   0  0.000000e+00  0.000000e+00 -1.947838e+03  1.947838e+03 0.0 0.0 9.0
 2  1 1 2 103   0 -2.202113e+03 -6.920037e+02 -2.587606e+02  2.322742e+03 0.0022 0.0 9.0
22  1 1 2   0   0  2.202113e+03  6.920037e+02  1.370110e+03  2.684283e+03 0.0 0.0 9.0
#pdf 21 2 4.706441e-01 2.996673e-01 5000.0 4.198571e-03 3.616278e-02
</event>
<event>
4 7 1.0 5000.0 7.905138e-03 7.739137e-02
21 -1 0 0 103 101  0.000000e+00  0.000000e+00  1.569959e+03  1.569959e+03 0.0 0.0 9.0
 2 -1 0 0 101   0  0.000000e+00  0.000000e+00 -3.867359e+03  3.867359e+03 0.0 0.0 9.0
22  1 1 2   0   0 -1.493899e+02  1.740346e+03 -3.066224e+03  3.528860e+03 0.0 0.0 9.0
 2  1 1 2 103   0  1.493899e+02 -1.740346e+03  7.688250e+02  1.908458e+03 0.0022 0.0 9.0
#pdf 21 2 2.415322e-01 5.949783e-01 5000.0 7.417411e-02 6.950804e-04
</event>
<event>
4 7 1.0 5000.0 7.905138e-03 7.739137e-02
 2 -1 0 0 101   0  0.000000e+00  0.000000e+00  1.313860e+03  1.313860e+03 0.0 0.0 9.0
21 -1 0 0 103 101  0.000000e+00  0.000000e+00 -3.774625e+03  3.774625e+03 0.0 0.0 9.0
 2  1 1 2 103   0  1.606108e+03 -1.110855e+02 -2.988240e+03  3.394333e+03 0.0022 0.0 9.0
22  1 1 2   0   0 -1.606108e+03  1.110855e+02  5.274746e+02  1.694152e+03 0.0 0.0 9.0
#pdf 2 21 2.021323e-01 5.807116e-01 5000.0 3.790910e-01 3.489664e-02
</event>
<event>
4 7 1.0 5000.0 7.905138e-03 7.739137e-02
21 -1 0 0 103 101  0.000000e+00  0.000000e+00  2.643374e+03  2.643374e+03 0.0 0.0 9.0
 2 -1 0 0 101   0  0.000000e+00  0.000000e+00 -2.365391e+03  2.365391e+03 0.0 0.0 9.0
22  1 1 2   0   0 -1.163800e+03 -5.380049e+02 -2.011119e+03  2.385053e+03 0.0 0.0 9.0
 2  1 1 2 103   0  1.163800e+03  5.380049e+02  2.289102e+03  2.623713e+03 0.0022 0.0 9.0
#pdf 21 2 4.066730e-01 3.639064e-01 5000.0 9.633122e-03 1.644151e-02
</event>
<event>
4 7 1.0 5000.0 7.905138e-03 7.739137e-02
 2 -1 0 0 101   0  0.000000e+00  0.000000e+00  3.334608e+03  3.334608e+03 0.0 0.0 9.0
21 -1 0 0 103 101  0.000000e+00  0.000000e+00 -1.872682e+03  1.872682e+03 0.0 0.0 9.0
 2  1 1 2 103   0 -1.397646e+03 -1.169009e+03 -1.050863e+03  2.103405e+03 0.0022 0.0 9.0
22  1 1 2   0   0  1.397646e+03  1.169009e+03  2.512788e+03  3.103885e+03 0.0 0.0 9.0
#pdf 2 21 5.130165e-01 2.881050e-01 5000.0 6.347970e-02 2.639838e-01
</event>
<event>
4 7 1.0 5000.0 7.905138e-03 7.739137e-02
21 -1 0 0 103 101  0.000000e+00  0.000000e+00  2.703964e+03  2.703964e+03 0.0 0.0 9.0
 2 -1 0 0 101   0  0.000000e+00  0.000000e+00 -2.413169e+03  2.413169e+03 0.0 0.0 9.0
 2  1 1 2 103   0 -3.051890e+02  1.242890e+03  2.359679e+03  2.684399e+03 0.0022 0.0 9.0
22  1 1 2   0   0  3.051890e+02 -1.242890e+03 -2.068884e+03  2.432734e+03 0.0 0.0 9.0
#pdf 21 2 4.159945e-01 3.712567e-01 5000.0 8.555779e-03 1.500118e-02
</event>
<event>
4 7 1.0 5000.0 7.905138e-03 7.739137e-02
 2 -1 0 0 101   0  0.000000e+00  0.000000e+00  2.044593e+03  2.044593e+03 0.0 0.0 9.0
21 -1 0 0 103 101  0.000000e+00  0.000000e+00 -2.967924e+03  2.967924e+03 0.0 0.0 9.0
 2  1 1 2 103   0  1.447609e+03 -7.503526e+02 -2.340322e+03  2.852316e+03 0.0022 0.0 9.0
22  1 1 2   0   0 -1.447609e+03  7.503526e+02  1.416991e+03  2.160201e+03 0.0 0.0 9.0
#pdf 2 21 3.145528e-01 4.566037e-01 5000.0 2.316466e-01 9.758581e-02
</event>
<event>
4 7 1.0 5000.0 7.905138e-03 7.739137e-02
 2 -1 0 0 101   0  0.000000e+00  0.000000e+00  2.134193e+03  2.134193e+03 0.0 0.0 9.0
21 -1 0 0 103 101  0.000000e+00  0.000000e+00 -3.158342e+03  3.158342e+03 0.0 0.0 9.0
22  1 1 2   0   0  1.114394e+03  2.344917e+03 -5.123247e+02  2.646316e+03 0.0 0.0 9.0
 2  1 1 2 103   0 -1.114394e+03 -2.344917e+03 -5.118244e+02  2.646219e+03 0.0022 0.0 9.0
#pdf 2 21 3.283374e-01 4.858988e-01 5000.0 2.156183e-01 7.860233e-02
</event>
<event>
4 7 1.0 5000.0 7.905138e-03 7.739137e-02
 2 -1 0 0 101   0  0.000000e+00  0.000000e+00  1.893427e+03  1.893427e+03 0.0 0.0 9.0
21 -1 0 0 103 101  0.000000e+00  0.000000e+00 -3.263768e+03  3.263768e+03 0.0 0.0 9.0
 2  1 1 2 103   0  5.124102e+02 -1.755921e+03  1.061016e+03  2.114610e+03 0.0022 0.0 9.0
22  1 1 2   0   0 -5.124102e+02  1.755921e+03 -2.431358e+03  3.042585e+03 0.0 0.0 9.0
#pdf 2 21 2.912964e-01 5.021182e-01 5000.0 2.599713e-01 6.928443e-02
</event>
<event>
4 7 1.0 5000.0 7.905138e-03 7.739137e-02
21 -1 0 0 103 101  0.000000e+00  0.000000e+00  1.777077e+03  1.777077e+03 0.0 0.0 9.0
 2 -1 0 0 101   0  0.000000e+00  0.000000e+00 -3.539459e+03  3.539459e+03 0.0 0.0 9.0
 2  1 1 2 103   0 -1.058880e+03  8.012990e+02  1.373891e+03  1.910729e+03 0.0022 0.0 9.0
22  1 1 2   0   0  1.058880e+03 -8.012990e+02 -3.136274e+03  3.405807e+03 0.0 0.0 9.0
#pdf 21 2 2.733964e-01 5.445321e-01 5000.0 4.991746e-02 1.498252e-03
</event>
<event>
4 7 1.0 5000.0 7.905138e-03 7.739137e-02
 2 -1 0 0 101   0  0.000000e+00  0.000000e+00  1.469312e+03  1.469312e+03 0.0 0.0 9.0
21 -1 0 0 103 101  0.000000e+00  0.000000e+00 -4.167483e+03  4.167483e+03 0.0 0.0 9.0
 2  1 1 2 103   0 -3.474292e+02 -1.710976e+03 -3.346389e+03  3.774449e+03 0.0022 0.0 9.0
22  1 1 2   0   0  3.474292e+02  1.710976e+03  6.482174e+02  1.862346e+03 0.0 0.0 9.0
#pdf 2 21 2.260480e-01 6.411512e-01 5000.0 3.461374e-01 1.858625e-02
</event>
<event>
4 7 1.0 5000.0 7.905138e-03 7.739137e-02
 2 -1 0 0 101   0  0.000000e+00  0.000000e+00  1.920214e+03  1.920214e+03 0.0 0.0 9.0
21 -1 0 0 103 101  0.000000e+00  0.000000e+00 -3.290575e+03  3.290575e+03 0.0 0.0 9.0
22  1 1 2   0   0  1.510618e+03  1.010133e+03  1.114925e+03  2.131993e+03 0.0 0.0 9.0
 2  1 1 2 103   0 -1.510618e+03 -1.010133e+03 -2.485286e+03  3.078796e+03 0.0022 0.0 9.0
#pdf 2 21 2.954175e-01 5.062423e-01 5000.0 2.548366e-01 6.704567e-02
</event>
<event>
4 7 1.0 5000.0 7.905138e-03 7.739137e-02
21 -1 0 0 103 101  0.000000e+00  0.000000e+00  3.098078e+03  3.098078e+03 0.0 0.0 9.0
 2 -1 0 0 101   0  0.000000e+00  0.000000e+00 -1.961529e+03  1.961529e+03 0.0 0.0 9.0
 2  1 1 2 103   0 -1.736675e+03 -3.321140e+02 -1.194516e+03  2.133824e+03 0.0022 0.0 9.0
22  1 1 2   0   0  1.736675e+03  3.321140e+02  2.331065e+03  2.925783e+03 0.0 0.0 9.0
#pdf 21 2 4.766274e-01 3.017737e-01 5000.0 3.874959e-03 3.525359e-02
</event>
<event>
4 7 1.0 5000.0 7.905138e-03 7.739137e-02
21 -1 0 0 103 101  0.000000e+00  0.000000e+00  3.664850e+03  3.664850e+03 0.0 0.0 9.0
 2 -1 0 0 101   0  0.000000e+00  0.000000e+00 -1.723471e+03  1.723471e+03 0.0 0.0 9.0
22  1 1 2   0   0  1.508077e+03 -1.031033e+02 -1.181686e+03  1.918673e+03 0.0 0.0 9.0
 2  1 1 2 103   0 -1.508077e+03  1.031033e+02  3.123065e+03  3.469649e+03 0.0022 0.0 9.0
#pdf 21 2 5.638231e-01 2.651494e-01 5000.0 1.126542e-03 5.525311e-02
</event>
<event>
4 7 1.0 5000.0 7.905138e-03 7.739137e-02
21 -1 0 0 103 101  0.000000e+00  0.000000e+00  2.113319e+03  2.113319e+03 0.0 0.0 9.0
 2 -1 0 0 101   0  0.000000e+00  0.000000e+00 -3.436308e+03  3.436308e+03 0.0 0.0 9.0
 2  1 1 2 103   0  1.618898e+03 -4.784052e+00 -2.879786e+03  3.303637e+03 0.0022 0.0 9.0
22  1 1 2   0   0 -1.618898e+03  4.784052e+00  1.556797e+03  2.245990e+03 0.0 0.0 9.0
#pdf 21 2 3.251260e-01 5.286627e-01 5000.0 2.647883e-02 1.885714e-03
</event>
<event>
4 7 1.0 5000.0 7.905138e-03 7.739137e-02
 2 -1 0 0 101   0  0.000000e+00  0.000000e+00  2.262963e+03  2.262963e+03 0.0 0.0 9.0
21 -1 0 0 103 101  0.000000e+00  0.000000e+00 -2.789830e+03  2.789830e+03 0.0 0.0 9.0
 2  1 1 2 103   0  2.410019e+03 -4.622964e+02  2.793160e+02  2.469803e+03 0.0022 0.0 9.0
22  1 1 2   0   0 -2.410019e+03  4.622964e+02 -8.061833e+02  2.582991e+03 0.0 0.0 9.0
#pdf 2 21 3.481482e-01 4.292047e-01 5000.0 1.936552e-01 1.179595e-01
</event>
<event>
4 7 1.0 5000.0 7.905138e-03 7.739137e-02
 2 -1 0 0 101   0  0.000000e+00  0.000000e+00  3.098128e+03  3.098128e+03 0.0 0.0 9.0
21 -1 0 0 103 101  0.000000e+00  0.000000e+00 -2.018605e+03  2.018605e+03 0.0 0.0 9.0
22  1 1 2   0   0 -9.208764e+02 -1.468466e+03 -1.304384e+03  2.169291e+03 0.0 0.0 9.0
 2  1 1 2 103   0  9.208764e+02  1.468466e+03  2.383907e+03  2.947443e+03 0.0022 0.0 9.0
#pdf 2 21 4.766351e-01 3.105546e-01 5000.0 8.430000e-02 2.364006e-01
</event>
<event>
4 7 1.0 5000.0 7.905138e-03 7.739137e-02
21 -1 0 0 103 101  0.000000e+00  0.000000e+00  1.939115e+03  1.939115e+03 0.0 0.0 9.0
 2 -1 0 0 101   0  0.000000e+00  0.000000e+00 -3.182569e+03  3.182569e+03 0.0 0.0 9.0
22  1 1 2   0   0 -5.942925e+02 -1.653371e+03  1.188729e+03  2.121296e+03 0.0 0.0 9.0
 2  1 1 2 103   0  5.942925e+02  1.653371e+03 -2.432183e+03  3.000388e+03 0.0022 0.0 9.0
#pdf 21 2 2.983254e-01 4.896260e-01 5000.0 3.678185e-02 3.248915e-03
</event>
<event>
4 7 1.0 5000.0 7.905138e-03 7.739137e-02
21 -1 0 0 103 101  0.000000e+00  0.000000e+00  2.794881e+03  2.794881e+03 0.0 0.0 9.0
 2 -1 0 0 101   0  0.000000e+00  0.000000e+00 -2.218125e+03  2.218125e+03 0.0 0.0 9.0
 2  1 1 2 103   0  1.544026e+03  1.868871e+03 -2.834881e+02  2.440709e+03 0.0022 0.0 9.0
22  1 1 2   0   0 -1.544026e+03 -1.868871e+03  8.602434e+02  2.572297e+03 0.0 0.0 9.0
#pdf 21 2 4.299816e-01 3.412500e-01 5000.0 7.152707e-03 2.172791e-02
</event>
<event>
4 7 1.0 5000.0 7.905138e-03 7.739137e-02
 2 -1 0 0 101   0  0.000000e+00  0.000000e+00  5.128931e+03  5.128931e+03 0.0 0.0 9.0
21 -1 0 0 103 101  0.000000e+00  0.000000e+00 -1.418624e+03  1.418624e+03 0.0 0.0 9.0
22  1 1 2   0   0 -1.982157e+03 -1.424337e+03  4.616240e+02  2.484105e+03 0.0 0.0 9.0
 2  1 1 2 103   0  1.982157e+03  1.424337e+03  3.248684e+03  4.063450e+03 0.0022 0.0 9.0
#pdf 2 21 7.890664e-01 2.182498e-01 5000.0 2.114580e-03 3.568130e-01
</event>
<event>
4 7 1.0 5000.0 7.905138e-03 7.739137e-02
21 -1 0 0 103 101  0.000000e+00  0.000000e+00  2.594141e+03  2.594141e+03 0.0 0.0 9.0
 2 -1 0 0 101   0  0.000000e+00  0.000000e+00 -2.383784e+03  2.383784e+03 0.0 0.0 9.0
22  1 1 2   0   0 -1.722344e+03  7.500608e+02  1.735994e+03  2.557877e+03 0.0 0.0 9.0
 2  1 1 2 103   0  1.722344e+03 -7.500608e+02 -1.525637e+03  2.420047e+03 0.0022 0.0 9.0
#pdf 21 2 3.990985e-01 3.667360e-01 5000.0 1.059926e-02 1.587314e-02
</event>
<event>
4 7 1.0 5000.0 7.905138e-03 7.739137e-02
21 -1 0 0 103 101  0.000000e+00  0.000000e+00  1.775791e+03  1.775791e+03 0.0 0.0 9.0
 2 -1 0 0 101   0  0.000000e+00  0.000000e+00 -3.487418e+03  3.487418e+03 0.0 0.0 9.0
 2  1 1 2 103   0  4.820205e+02 -2.333729e+03 -9.745301e+01  2.384981e+03 0.0022 0.0 9.0
22  1 1 2   0   0 -4.820205e+02  2.333729e+03 -1.614174e+03  2.878228e+03 0.0 0.0 9.0
#pdf 21 2 2.731985e-01 5.365258e-01 5000.0 5.003894e-02 1.682799e-03
</event>
<event>
4 7 1.0 5000.0 7.905138e-03 7.739137e-02
 2 -1 0 0 101   0  0.000000e+00  0.000000e+00  4.037713e+03  4.037713e+03 0.0 0.0 9.0
21 -1 0 0 103 101  0.000000e+00  0.000000e+00 -1.531451e+03  1.531451e+03 0.0 0.0 9.0
22  1 1 2   0   0 -1.346996e+03 -1.159914e+03  3.200348e+03  3.660878e+03 0.0 0.0 9.0
 2  1 1 2 103   0  1.346996e+03  1.159914e+03 -6.940864e+02  1.908286e+03 0.0022 0.0 9.0
#pdf 2 21 6.211865e-01 2.356078e-01 5000.0 2.315838e-02 3.330461e-01
</event>
<event>
4 7 1.0 5000.0 7.905138e-03 7.739137e-02
 2 -1 0 0 101   0  0.000000e+00  0.000000e+00  1.793935e+03  1.793935e+03 0.0 0.0 9.0
21 -1 0 0 103 101  0.000000e+00  0.000000e+00 -2.803231e+03  2.803231e+03 0.0 0.0 9.0
22  1 1 2   0   0 -1.927049e+03 -1.146484e+03 -5.348902e+02  2.305222e+03 0.0 0.0 9.0
 2  1 1 2 103   0  1.927049e+03  1.146484e+03 -4.744060e+02  2.291943e+03 0.0022 0.0 9.0
#pdf 2 21 2.759900e-01 4.312663e-01 5000.0 2.794210e-01 1.163395e-01
</event>
<event>
4 7 1.0 5000.0 7.905138e-03 7.739137e-02
21 -1 0 0 103 101  0.000000e+00  0.000000e+00  1.492140e+03  1.492140e+03 0.0 0.0 9.0
 2 -1 0 0 101   0  0.000000e+00  0.000000e+00 -4.152997e+03  4.152997e+03 0.0 0.0 9.0
22  1 1 2   0   0  1.107144e+03  2.018972e+02 -3.848086e+03  4.009276e+03 0.0 0.0 9.0
 2  1 1 2 103   0 -1.107144e+03 -2.018972e+02  1.187229e+03  1.635861e+03 0.0022 0.0 9.0
#pdf 21 2 2.295601e-01 6.389227e-01 5000.0 8.611455e-02 3.362476e-04
</event>
<event>
4 7 1.0 5000.0 7.905138e-03 7.739137e-02
21 -1 0 0 103 101  0.000000e+00  0.000000e+00  3.349286e+03  3.349286e+03 0.0 0.0 9.0
 2 -1 0 0 101   0  0.000000e+00  0.000000e+00 -1.846261e+03  1.846261e+03 0.0 0.0 9.0
 2  1 1 2 103   0  1.132427e+03  8.897114e+02  2.869301e+03  3.210430e+03 0.0022 0.0 9.0
22  1 1 2   0   0 -1.132427e+03 -8.897114e+02 -1.366275e+03  1.985116e+03 0.0 0.0 9.0
#pdf 21 2 5.152747e-01 2.840401e-01 5000.0 2.278971e-03 4.379388e-02
</event>
<event>
4 7 1.0 5000.0 7.905138e-03 7.739137e-02
 2 -1 0 0 101   0  0.000000e+00  0.000000e+00  3.957369e+03  3.957369e+03 0.0 0.0 9.0
21 -1 0 0 103 101  0.000000e+00  0.000000e+00 -1.589183e+03  1.589183e+03 0.0 0.0 9.0
22  1 1 2   0   0 -1.946070e+02  2.262577e+03  7.575820e+00  2.270944e+03 0.0 0.0 9.0
 2  1 1 2 103   0  1.946070e+02 -2.262577e+03  2.360610e+03  3.275608e+03 0.0022 0.0 9.0
#pdf 2 21 6.088260e-01 2.444897e-01 5000.0 2.637558e-02 3.210308e-01
</event>
<event>
4 7 1.0 5000.0 7.905138e-03 7.739137e-02
21 -1 0 0 103 101  0.000000e+00  0.000000e+00  3.383645e+03  3.383645e+03 0.0 0.0 9.0
 2 -1 0 0 101   0  0.000000e+00  0.000000e+00 -1.772825e+03  1.772825e+03 0.0 0.0 9.0
22  1 1 2   0   0  1.089015e+03  1.137334e+03 -1.169353e+03  1.961343e+03 0.0 0.0 9.0
 2  1 1 2 103   0 -1.089015e+03 -1.137334e+03  2.780172e+03  3.195127e+03 0.0022 0.0 9.0
#pdf 21 2 5.205608e-01 2.727424e-01 5000.0 2.114805e-03 5.032017e-02
</event>
<event>
4 7 1.0 5000.0 7.905138e-03 7.739137e-02
21 -1 0 0 103 101  0.000000e+00  0.000000e+00  2.990458e+03  2.990458e+03 0.0 0.0 9.0
 2 -1 0 0 101   0  0.000000e+00  0.000000e+00 -2.152534e+03  2.152534e+03 0.0 0.0 9.0
 2  1 1 2 103   0 -3.144466e+02 -1.486258e+03 -1.640605e+03  2.235940e+03 0.0022 0.0 9.0
22  1 1 2   0   0  3.144466e+02  1.486258e+03  2.478530e+03  2.907052e+03 0.0 0.0 9.0
#pdf 21 2 4.600705e-01 3.311590e-01 5000.0 4.830970e-03 2.459459e-02
</event>
<event>
4 7 1.0 5000.0 7.905138e-03 7.739137e-02
21 -1 0 0 103 101  0.000000e+00  0.000000e+00  1.539673e+03  1.539673e+03 0.0 0.0 9.0
 2 -1 0 0 101   0  0.000000e+00  0.000000e+00 -4.036102e+03  4.036102e+03 0.0 0.0 9.0
 2  1 1 2 103   0  1.353506e+03  1.328436e+03 -3.057587e+03  3.597993e+03 0.0022 0.0 9.0
22  1 1 2   0   0 -1.353506e+03 -1.328436e+03  5.611575e+02  1.977781e+03 0.0 0.0 9.0
#pdf 21 2 2.368727e-01 6.209387e-01 5000.0 7.862279e-02 4.562541e-04
</event>
<event>
4 7 1.0 5000.0 7.905138e-03 7.739137e-02
 2 -1 0 0 101   0  0.000000e+00  0.000000e+00  3.375677e+03  3.375677e+03 0.0 0.0 9.0
21 -1 0 0 103 101  0.000000e+00  0.000000e+00 -1.969860e+03  1.969860e+03 0.0 0.0 9.0
 2  1 1 2 103   0  6.447329e+02  1.761656e+03 -1.130968e+03  2.190479e+03 0.0022 0.0 9.0
22  1 1 2   0   0 -6.447329e+02 -1.761656e+03  2.536784e+03  3.155057e+03 0.0 0.0 9.0
#pdf 2 21 5.193349e-01 3.030554e-01 5000.0 6.027753e-02 2.454588e-01
</event>
<event>
4 7 1.0 5000.0 7.905138e-03 7.739137e-02
21 -1 0 0 103 101  0.000000e+00  0.000000e+00  2.863679e+03  2.863679e+03 0.0 0.0 9.0
 2 -1 0 0 101   0  0.000000e+00  0.000000e+00 -2.217739e+03  2.217739e+03 0.0 0.0 9.0
22  1 1 2   0   0  1.859035e+03  5.658466e+02  1.940680e+03  2.746349e+03 0.0 0.0 9.0
 2  1 1 2 103   0 -1.859035e+03 -5.658466e+02 -1.294740e+03  2.335069e+03 0.0022 0.0 9.0
#pdf 21 2 4.405660e-01 3.411906e-01 5000.0 6.244360e-03 2.174370e-02
</event>
<event>
4 7 1.0 5000.0 7.905138e-03 7.739137e-02
 2 -1 0 0 101   0  0.000000e+00  0.000000e+00  2.533399e+03  2.533399e+03 0.0 0.0 9.0
21 -1 0 0 103 101  0.000000e+00  0.000000e+00 -2.259182e+03  2.259182e+03 0.0 0.0 9.0
 2  1 1 2 103   0  1.841540e+03 -1.088934e+03 -9.353305e+02  2.334928e+03 0.0022 0.0 9.0
22  1 1 2   0   0 -1.841540e+03  1.088934e+03  1.209548e+03  2.457652e+03 0.0 0.0 9.0
#pdf 2 21 3.897536e-01 3.475664e-01 5000.0 1.519252e-01 1.942818e-01
</event>
<event>
4 7 1.0 5000.0 7.905138e-03 7.739137e-02
 2 -1 0 0 101   0  0.000000e+00  0.000000e+00  1.454358e+03  1.454358e+03 0.0 0.0 9.0
21 -1 0 0 103 101  0.000000e+00  0.000000e+00 -4.179102e+03  4.179102e+03 0.0 0.0 9.0
22  1 1 2   0   0  1.444181e+03 -1.199991e+03 -3.187662e+03  3.699571e+03 0.0 0.0 9.0
 2  1 1 2 103   0 -1.444181e+03  1.199991e+03  4.629172e+02  1.933890e+03 0.0022 0.0 9.0
#pdf 2 21 2.237474e-01 6.429388e-01 5000.0 3.492825e-01 1.821238e-02
</event>
<event>
4 7 1.0 5000.0 7.905138e-03 7.739137e-02
21 -1 0 0 103 101  0.000000e+00  0.000000e+00  1.875288e+03  1.875288e+03 0.0 0.0 9.0
 2 -1 0 0 101   0  0.000000e+00  0.000000e+00 -3.152499e+03  3.152499e+03 0.0 0.0 9.0
22  1 1 2   0   0  2.330906e+03 -3.550823e+01 -1.353027e+03  2.695378e+03 0.0 0.0 9.0
 2  1 1 2 103   0 -2.330906e+03  3.550823e+01  7.581554e+01  2.332409e+03 0.0022 0.0 9.0
#pdf 21 2 2.885058e-01 4.849999e-01 5000.0 4.148259e-02 3.459456e-03
</event>
<event>
4 7 1.0 5000.0 7.905138e-03 7.739137e-02
21 -1 0 0 103 101  0.000000e+00  0.000000e+00  2.585385e+03  2.585385e+03 0.0 0.0 9.0
 2 -1 0 0 101   0  0.000000e+00  0.000000e+00 -2.440236e+03  2.440236e+03 0.0 0.0 9.0
 2  1 1 2 103   0 -1.436764e+03 -1.821530e+03 -8.904729e+02  2.484996e+03 0.0022 0.0 9.0
22  1 1 2   0   0  1.436764e+03  1.821530e+03  1.035622e+03  2.540625e+03 0.0 0.0 9.0
#pdf 21 2 3.977516e-01 3.754209e-01 5000.0 1.078022e-02 1.426061e-02
</event>
<event>
4 7 1.0 5000.0 7.905138e-03 7.739137e-02
 2 -1 0 0 101   0  0.000000e+00  0.000000e+00  2.127474e+03  2.127474e+03 0.0 0.0 9.0
21 -1 0 0 103 101  0.000000e+00  0.000000e+00 -3.243399e+03  3.243399e+03 0.0 0.0 9.0
22  1 1 2   0   0  1.897836e+01  1.539513e+03 -2.733775e+03  3.137513e+03 0.0 0.0 9.0
 2  1 1 2 103   0 -1.897836e+01 -1.539513e+03  1.617849e+03  2.233360e+03 0.0022 0.0 9.0
#pdf 2 21 3.273036e-01 4.989845e-01 5000.0 2.168007e-01 7.102028e-02
</event>
<event>
4 7 1.0 5000.0 7.905138e-03 7.739137e-02
 2 -1 0 0 101   0  0.000000e+00  0.000000e+00  2.582603e+03  2.582603e+03 0.0 0.0 9.0
21 -1 0 0 103 101  0.000000e+00  0.000000e+00 -2.385477e+03  2.385477e+03 0.0 0.0 9.0
 2  1 1 2 103   0  1.082847e+03  2.762423e+02  2.316585e+03  2.572048e+03 0.0022 0.0 9.0
22  1 1 2   0   0 -1.082847e+03 -2.762423e+02 -2.119458e+03  2.396032e+03 0.0 0.0 9.0
#pdf 2 21 3.973236e-01 3.669964e-01 5000.0 1.449848e-01 1.739901e-01
</event>
<event>
4 7 1.0 5000.0 7.905138e-03 7.739137e-02
 2 -1 0 0 101   0  0.000000e+00  0.000000e+00  3.603841e+03  3.603841e+03 0.0 0.0 9.0
21 -1 0 0 103 101  0.000000e+00  0.000000e+00 -1.852717e+03  1.852717e+03 0.0 0.0 9.0
 2  1 1 2 103   0 -1.831460e+03  1.043157e+03  2.453860e+03  3.234788e+03 0.0022 0.0 9.0
22  1 1 2   0   0  1.831460e+03 -1.043157e+03 -7.027365e+02  2.221770e+03 0.0 0.0 9.0
#pdf 2 21 5.544370e-01 2.850335e-01 5000.0 4.454937e-02 2.678691e-01
</event>
<event>
4 7 1.0 5000.0 7.905138e-03 7.739137e-02
 2 -1 0 0 101   0  0.000000e+00  0.000000e+00  2.062058e+03  2.062058e+03 0.0 0.0 9.0
21 -1 0 0 103 101  0.000000e+00  0.000000e+00 -3.149947e+03  3.149947e+03 0.0 0.0 9.0
 2  1 1 2 103   0 -2.329544e+03  3.544299e+02  4.489952e+02  2.398749e+03 0.0022 0.0 9.0
22  1 1 2   0   0  2.329544e+03 -3.544299e+02 -1.536884e+03  2.813256e+03 0.0 0.0 9.0
#pdf 2 21 3.172397e-01 4.846072e-01 5000.0 2.284797e-01 7.938003e-02
</event>
<event>
4 7 1.0 5000.0 7.905138e-03 7.739137e-02
21 -1 0 0 103 101  0.000000e+00  0.000000e+00  1.404438e+03  1.404438e+03 0.0 0.0 9.0
 2 -1 0 0 101   0  0.000000e+00  0.000000e+00 -4.384285e+03  4.384285e+03 0.0 0.0 9.0
22  1 1 2   0   0 -2.288323e+03  8.434467e+02 -2.023971e+03  3.169272e+03 0.0 0.0 9.0
 2  1 1 2 103   0  2.288323e+03 -8.434467e+02 -9.558754e+02  2.619451e+03 0.0022 0.0 9.0
#pdf 21 2 2.160674e-01 6.745054e-01 5000.0 1.023001e-01 1.772899e-04
</event>
<event>
4 7 1.0 5000.0 7.905138e-03 7.739137e-02
 2 -1 0 0 101   0  0.000000e+00  0.000000e+00  4.012995e+03  4.012995e+03 0.0 0.0 9.0
21 -1 0 0 103 101  0.000000e+00  0.000000e+00 -1.526076e+03  1.526076e+03 0.0 0.0 9.0
22  1 1 2   0   0  9.020371e+02 -4.687071e+01 -1.335003e+03  1.611863e+03 0.0 0.0 9.0
 2  1 1 2 103   0 -9.020371e+02  4.687071e+01  3.821923e+03  3.927208e+03 0.0022 0.0 9.0
#pdf 2 21 6.173839e-01 2.347809e-01 5000.0 2.411550e-02 3.341771e-01
</event>
<event>
4 7 1.0 5000.0 7.905138e-03 7.739137e-02
 2 -1 0 0 101   0  0.000000e+00  0.000000e+00  2.448346e+03  2.448346e+03 0.0 0.0 9.0
21 -1 0 0 103 101  0.000000e+00  0.000000e+00 -2.432544e+03  2.432544e+03 0.0 0.0 9.0
 2  1 1 2 103   0  1.120258e+03 -2.013867e+03 -7.952666e+02  2.437845e+03 0.0022 0.0 9.0
22  1 1 2   0   0 -1.120258e+03  2.013867e+03  8.110687e+02  2.443046e+03 0.0 0.0 9.0
#pdf 2 21 3.766687e-01 3.742376e-01 5000.0 1.643913e-01 1.667700e-01
</event>
<event>
4 7 1.0 5000.0 7.905138e-03 7.739137e-02
21 -1 0 0 103 101  0.000000e+00  0.000000e+00  3.038618e+03  3.038618e+03 0.0 0.0 9.0
 2 -1 0 0 101   0  0.000000e+00  0.000000e+00 -1.842558e+03  1.842558e+03 0.0 0.0 9.0
 2  1 1 2 103   0  3.465066e+00 -2.233106e+03  1.404971e+03  2.638317e+03 0.0022 0.0 9.0
22  1 1 2   0   0 -3.465066e+00  2.233106e+03 -2.089116e+02  2.242859e+03 0.0 0.0 9.0
#pdf 21 2 4.674796e-01 2.834705e-01 5000.0 4.379181e-03 4.409990e-02
</event>
<event>
4 7 1.0 5000.0 7.905138e-03 7.739137e-02
21 -1 0 0 103 101  0.000000e+00  0.000000e+00  1.837324e+03  1.837324e+03 0.0 0.0 9.0
 2 -1 0 0 101   0  0.000000e+00  0.000000e+00 -3.368154e+03  3.368154e+03 0.0 0.0 9.0
22  1 1 2   0   0  2.354337e+03  6.313896e+02 -2.456014e+02  2.449872e+03 0.0 0.0 9.0
 2  1 1 2 103   0 -2.354337e+03 -6.313896e+02 -1.285228e+03  2.755606e+03 0.0022 0.0 9.0
#pdf 21 2 2.826653e-01 5.181776e-01 5000.0 4.453745e-02 2.187353e-03
</event>
<event>
4 7 1.0 5000.0 7.905138e-03 7.739137e-02
21 -1 0 0 103 101  0.000000e+00  0.000000e+00  4.106823e+03  4.106823e+03 0.0 0.0 9.0
 2 -1 0 0 101   0  0.000000e+00  0.000000e+00 -1.538201e+03  1.538201e+03 0.0 0.0 9.0
 2  1 1 2 103   0 -4.229509e+02  2.415929e+03  1.900958e+03  3.103102e+03 0.0022 0.0 9.0
22  1 1 2   0   0  4.229509e+02 -2.415929e+03  6.676637e+02  2.541923e+03 0.0 0.0 9.0
#pdf 21 2 6.318190e-01 2.366464e-01 5000.0 3.796809e-04 7.884405e-02
</event>
<event>
4 7 1.0 5000.0 7.905138e-03 7.739137e-02
 2 -1 0 0 101   0  0.000000e+00  0.000000e+00  1.383585e+03  1.383585e+03 0.0 0.0 9.0
21 -1 0 0 103 101  0.000000e+00  0.000000e+00 -4.418694e+03  4.418694e+03 0.0 0.0 9.0
 2  1 1 2 103   0 -1.338839e+03  1.636910e+03 -1.419501e+01  2.114749e+03 0.0022 0.0 9.0
22  1 1 2   0   0  1.338839e+03 -1.636910e+03 -3.020914e+03  3.687531e+03 0.0 0.0 9.0
#pdf 2 21 2.128593e-01 6.797991e-01 5000.0 3.642403e-01 1.167923e-02
</event>
<event>
4 7 1.0 5000.0 7.905138e-03 7.739137e-02
 2 -1 0 0 101   0  0.000000e+00  0.000000e+00  2.441391e+03  2.441391e+03 0.0 0.0 9.0
21 -1 0 0 103 101  0.000000e+00  0.000000e+00 -2.326910e+03  2.326910e+03 0.0 0.0 9.0
22  1 1 2   0   0  1.950648e+03 -1.872287e+02 -1.299917e+03  2.351567e+03 0.0 0.0 9.0
 2  1 1 2 103   0 -1.950648e+03  1.872287e+02  1.414398e+03  2.416734e+03 0.0022 0.0 9.0
#pdf 2 21 3.755986e-01 3.579862e-01 5000.0 1.654361e-01 1.832393e-01
</event>
<event>
4 7 1.0 5000.0 7.905138e-03 7.739137e-02
21 -1 0 0 103 101  0.000000e+00  0.000000e+00  2.214800e+03  2.214800e+03 0.0 0.0 9.0
 2 -1 0 0 101   0  0.000000e+00  0.000000e+00 -2.783708e+03  2.783708e+03 0.0 0.0 9.0
 2  1 1 2 103   0  3.902519e+02 -4.021520e+02 -2.719228e+03  2.776369e+03 0.0022 0.0 9.0
22  1 1 2   0   0 -3.902519e+02  4.021520e+02  2.150320e+03  2.222139e+03 0.0 0.0 9.0
#pdf 21 2 3.407385e-01 4.282628e-01 5000.0 2.186433e-02 7.312190e-03
</event>
<event>
4 7 1.0 5000.0 7.905138e-03 7.739137e-02
21 -1 0 0 103 101  0.000000e+00  0.000000e+00  1.865505e+03  1.865505e+03 0.0 0.0 9.0
 2 -1 0 0 101   0  0.000000e+00  0.000000e+00 -3.228261e+03  3.228261e+03 0.0 0.0 9.0
22  1 1 2   0   0  1.121980e+03  5.536242e+02  1.509648e+03  1.960708e+03 0.0 0.0 9.0
 2  1 1 2 103   0 -1.121980e+03 -5.536242e+02 -2.872404e+03  3.133057e+03 0.0022 0.0 9.0
#pdf 21 2 2.870007e-01 4.966555e-01 5000.0 4.224544e-02 2.951585e-03
</event>
<event>
4 7 1.0 5000.0 7.905138e-03 7.739137e-02
21 -1 0 0 103 101  0.000000e+00  0.000000e+00  1.434198e+03  1.434198e+03 0.0 0.0 9.0
 2 -1 0 0 101   0  0.000000e+00  0.000000e+00 -4.695899e+03  4.695899e+03 0.0 0.0 9.0
22  1 1 2   0   0 -5.906408e+02 -9.042517e+02 -4.417842e+03  4.547950e+03 0.0 0.0 9.0
 2  1 1 2 103   0  5.906408e+02  9.042517e+02  1.156140e+03  1.582147e+03 0.0022 0.0 9.0
#pdf 21 2 2.206458e-01 7.224460e-01 5000.0 9.647501e-02 6.802565e-05
</event>
<event>
4 7 1.0 5000.0 7.905138e-03 7.739137e-02
21 -1 0 0 103 101  0.000000e+00  0.000000e+00  2.680652e+03  2.680652e+03 0.0 0.0 9.0
 2 -1 0 0 101   0  0.000000e+00  0.000000e+00 -2.328245e+03  2.328245e+03 0.0 0.0 9.0
 2  1 1 2 103   0 -6.608603e+02 -5.615088e+02 -2.172518e+03  2.339202e+03 0.0022 0.0 9.0
22  1 1 2   0   0  6.608603e+02  5.615088e+02  2.524925e+03  2.669695e+03 0.0 0.0 9.0
#pdf 21 2 4.124080e-01 3.581916e-01 5000.0 8.955093e-03 1.763503e-02
</event>
<event>
4 7 1.0 5000.0 7.905138e-03 7.739137e-02
21 -1 0 0 103 101  0.000000e+00  0.000000e+00  1.729158e+03  1.729158e+03 0.0 0.0 9.0
 2 -1 0 0 101   0  0.000000e+00  0.000000e+00 -3.396805e+03  3.396805e+03 0.0 0.0 9.0
 2  1 1 2 103   0 -8.090572e+02  8.952984e+02  1.388872e+03  1.839864e+03 0.0022 0.0 9.0
22  1 1 2   0   0  8.090572e+02 -8.952984e+02 -3.056519e+03  3.286098e+03 0.0 0.0 9.0
#pdf 21 2 2.660243e-01 5.225853e-01 5000.0 5.465902e-02 2.055178e-03
</event>
<event>
4 7 1.0 5000.0 7.905138e-03 7.739137e-02
21 -1 0 0 103 101  0.000000e+00  0.000000e+00  3.520221e+03  3.520221e+03 0.0 0.0 9.0
 2 -1 0 0 101   0  0.000000e+00  0.000000e+00 -1.747837e+03  1.747837e+03 0.0 0.0 9.0
22  1 1 2   0   0  1.886944e+03  1.409527e+03  5.991774e+01  2.356038e+03 0.0 0.0 9.0
 2  1 1 2 103   0 -1.886944e+03 -1.409527e+03  1.712466e+03  2.912021e+03 0.0022 0.0 9.0
#pdf 21 2 5.415725e-01 2.688981e-01 5000.0 1.563842e-03 5.275614e-02
</event>
<event>
4 7 1.0 5000.0 7.905138e-03 7.739137e-02
 2 -1 0 0 101   0  0.000000e+00  0.000000e+00  3.420215e+03  3.420215e+03 0.0 0.0 9.0
21 -1 0 0 103 101  0.000000e+00  0.000000e+00 -1.842667e+03  1.842667e+03 0.0 0.0 9.0
 2  1 1 2 103   0 -1.483129e+03  7.885971e+02  2.744376e+03  3.217633e+03 0.0022 0.0 9.0
22  1 1 2   0   0  1.483129e+03 -7.885971e+02 -1.166828e+03  2.045249e+03 0.0 0.0 9.0
#pdf 2 21 5.261869e-01 2.834872e-01 5000.0 5.694178e-02 2.698319e-01
</event>
<event>
4 7 1.0 5000.0 7.905138e-03 7.739137e-02
21 -1 0 0 103 101  0.000000e+00  0.000000e+00  2.435675e+03  2.435675e+03 0.0 0.0 9.0
 2 -1 0 0 101   0  0.000000e+00  0.000000e+00 -2.526952e+03  2.526952e+03 0.0 0.0 9.0
22  1 1 2   0   0 -1.102412e+03 -7.513823e+02  2.046353e+03  2.442836e+03 0.0 0.0 9.0
 2  1 1 2 103   0  1.102412e+03  7.513823e+02 -2.137629e+03  2.519791e+03 0.0022 0.0 9.0
#pdf 21 2 3.747193e-01 3.887618e-01 5000.0 1.438347e-02 1.207043e-02
</event>
<event>
4 7 1.0 5000.0 7.905138e-03 7.739137e-02
 2 -1 0 0 101   0  0.000000e+00  0.000000e+00  3.527298e+03  3.527298e+03 0.0 0.0 9.0
21 -1 0 0 103 101  0.000000e+00  0.000000e+00 -1.718080e+03  1.718080e+03 0.0 0.0 9.0
22  1 1 2   0   0  2.330874e+03  5.416179e+02  1.520191e+03  2.835014e+03 0.0 0.0 9.0
 2  1 1 2 103   0 -2.330874e+03 -5.416179e+02  2.890272e+02  2.410365e+03 0.0022 0.0 9.0
#pdf 2 21 5.426613e-01 2.643200e-01 5000.0 4.944753e-02 2.946199e-01
</event>
<event>
4 7 1.0 5000.0 7.905138e-03 7.739137e-02
 2 -1 0 0 101   0  0.000000e+00  0.000000e+00  1.178222e+03  1.178222e+03 0.0 0.0 9.0
21 -1 0 0 103 101  0.000000e+00  0.000000e+00 -3.792677e+03  3.792677e+03 0.0 0.0 9.0
22  1 1 2   0   0  1.524795e+03 -1.096709e+03 -2.447681e+03  3.085273e+03 0.0 0.0 9.0
 2  1 1 2 103   0 -1.524795e+03  1.096709e+03 -1.667738e+02  1.885625e+03 0.0022 0.0 9.0
#pdf 2 21 1.812649e-01 5.834887e-01 5000.0 4.077153e-01 3.397518e-02
</event>
<event>
4 7 1.0 5000.0 7.905138e-03 7.739137e-02
21 -1 0 0 103 101  0.000000e+00  0.000000e+00  3.276205e+03  3.276205e+03 0.0 0.0 9.0
 2 -1 0 0 101   0  0.000000e+00  0.000000e+00 -1.911372e+03  1.911372e+03 0.0 0.0 9.0
 2  1 1 2 103   0 -1.760015e+03  1.499299e+02  2.519689e+03  3.077169e+03 0.0022 0.0 9.0
22  1 1 2   0   0  1.760015e+03 -1.499299e+02 -1.154856e+03  2.110409e+03 0.0 0.0 9.0
#pdf 21 2 5.040316e-01 2.940572e-01 5000.0 2.665253e-03 3.877878e-02
</event>
<event>
4 7 1.0 5000.0 7.905138e-03 7.739137e-02
21 -1 0 0 103 101  0.000000e+00  0.000000e+00  1.663532e+03  1.663532e+03 0.0 0.0 9.0
 2 -1 0 0 101   0  0.000000e+00  0.000000e+00 -3.815543e+03  3.815543e+03 0.0 0.0 9.0
22  1 1 2   0   0  1.975433e+03 -1.541979e+03 -1.357982e+03  2.850290e+03 0.0 0.0 9.0
 2  1 1 2 103   0 -1.975433e+03  1.541979e+03 -7.940284e+02  2.628786e+03 0.0022 0.0 9.0
#pdf 21 2 2.559281e-01 5.870066e-01 5000.0 6.199314e-02 7.883166e-04
</event>
<event>
4 7 1.0 5000.0 7.905138e-03 7.739137e-02
21 -1 0 0 103 101  0.000000e+00  0.000000e+00  3.795962e+03  3.795962e+03 0.0 0.0 9.0
 2 -1 0 0 101   0  0.000000e+00  0.000000e+00 -1.520542e+03  1.520542e+03 0.0 0.0 9.0
22  1 1 2   0   0 -2.238737e+03 -8.000323e+02  1.520878e+03  2.822245e+03 0.0 0.0 9.0
 2  1 1 2 103   0  2.238737e+03  8.000323e+02  7.545409e+02  2.494259e+03 0.0022 0.0 9.0
#pdf 21 2 5.839941e-01 2.339296e-01 5000.0 8.261776e-04 8.154680e-02
</event>
<event>
4 7 1.0 5000.0 7.905138e-03 7.739137e-02
21 -1 0 0 103 101  0.000000e+00  0.000000e+00  3.789234e+03  3.789234e+03 0.0 0.0 9.0
 2 -1 0 0 101   0  0.000000e+00  0.000000e+00 -1.653280e+03  1.653280e+03 0.0 0.0 9.0
 2  1 1 2 103   0 -1.832655e+03  8.827708e+02  2.653526e+03  3.343517e+03 0.0022 0.0 9.0
22  1 1 2   0   0  1.832655e+03 -8.827708e+02 -5.175726e+02  2.098997e+03 0.0 0.0 9.0
#pdf 21 2 5.829591e-01 2.543508e-01 5000.0 8.395342e-04 6.322880e-02
</event>
<event>
4 7 1.0 5000.0 7.905138e-03 7.739137e-02
 2 -1 0 0 101   0  0.000000e+00  0.000000e+00  1.769977e+03  1.769977e+03 0.0 0.0 9.0
21 -1 0 0 103 101  0.000000e+00  0.000000e+00 -3.633984e+03  3.633984e+03 0.0 0.0 9.0
 2  1 1 2 103   0  2.158752e+03  1.141804e+03 -1.660948e+03  2.953418e+03 0.0022 0.0 9.0
22  1 1 2   0   0 -2.158752e+03 -1.141804e+03 -2.030582e+02  2.450543e+03 0.0 0.0 9.0
#pdf 2 21 2.723042e-01 5.590744e-01 5000.0 2.841901e-01 4.273347e-02
</event>
<event>
4 7 1.0 5000.0 7.905138e-03 7.739137e-02
 2 -1 0 0 101   0  0.000000e+00  0.000000e+00  3.544044e+03  3.544044e+03 0.0 0.0 9.0
21 -1 0 0 103 101  0.000000e+00  0.000000e+00 -1.953061e+03  1.953061e+03 0.0 0.0 9.0
22  1 1 2   0   0  7.309146e+02  3.037087e+02  3.416711e+03  3.507191e+03 0.0 0.0 9.0
 2  1 1 2 103   0 -7.309146e+02 -3.037087e+02 -1.825728e+03  1.989914e+03 0.0022 0.0 9.0
#pdf 2 21 5.452376e-01 3.004710e-01 5000.0 4.834630e-02 2.486248e-01
</event>
<event>
4 7 1.0 5000.0 7.905138e-03 7.739137e-02
21 -1 0 0 103 101  0.000000e+00  0.000000e+00  1.743500e+03  1.743500e+03 0.0 0.0 9.0
 2 -1 0 0 101   0  0.000000e+00  0.000000e+00 -3.746912e+03  3.746912e+03 0.0 0.0 9.0
22  1 1 2   0   0 -1.256091e+03 -2.225017e+03 -1.071908e+03  2.770822e+03 0.0 0.0 9.0
 2  1 1 2 103   0  1.256091e+03  2.225017e+03 -9.315046e+02  2.719590e+03 0.0022 0.0 9.0
#pdf 21 2 2.682307e-01 5.764480e-01 5000.0 5.319155e-02 9.281442e-04
</event>
<event>
4 7 1.0 5000.0 7.905138e-03 7.739137e-02
21 -1 0 0 103 101  0.000000e+00  0.000000e+00  3.944450e+03  3.944450e+03 0.0 0.0 9.0
 2 -1 0 0 101   0  0.000000e+00  0.000000e+00 -1.768520e+03  1.768520e+03 0.0 0.0 9.0
 2  1 1 2 103   0  3.376259e+02 -8.131417e+02 -1.605134e+03  1.830750e+03 0.0022 0.0 9.0
22  1 1 2   0   0 -3.376259e+02  8.131417e+02  3.781064e+03  3.882220e+03 0.0 0.0 9.0
#pdf 21 2 6.068385e-01 2.720801e-01 5000.0 5.751511e-04 5.073135e-02
</event>
<event>
4 7 1.0 5000.0 7.905138e-03 7.739137e-02
 2 -1 0 0 101   0  0.000000e+00  0.000000e+00  1.582374e+03  1.582374e+03 0.0 0.0 9.0
21 -1 0 0 103 101  0.000000e+00  0.000000e+00 -3.603206e+03  3.603206e+03 0.0 0.0 9.0
 2  1 1 2 103   0  1.263046e+03 -1.057188e+03 -2.887607e+03  3.324335e+03 0.0022 0.0 9.0
22  1 1 2   0   0 -1.263046e+03  1.057188e+03  8.667746e+02  1.861245e+03 0.0 0.0 9.0
#pdf 2 21 2.434421e-01 5.543394e-01 5000.0 3.224306e-01 4.458795e-02
</event>
<event>
4 7 1.0 5000.0 7.905138e-03 7.739137e-02
 2 -1 0 0 101   0  0.000000e+00  0.000000e+00  3.950166e+03  3.950166e+03 0.0 0.0 9.0
21 -1 0 0 103 101  0.000000e+00  0.000000e+00 -1.461430e+03  1.461430e+03 0.0 0.0 9.0
22  1 1 2   0   0  6.534510e+02  2.289503e+03  8.810754e+02  2.538723e+03 0.0 0.0 9.0
 2  1 1 2 103   0 -6.534510e+02 -2.289503e+03  1.607661e+03  2.872872e+03 0.0022 0.0 9.0
#pdf 2 21 6.077178e-01 2.248353e-01 5000.0 2.667927e-02 3.477949e-01
</event>
<event>
4 7 1.0 5000.0 7.905138e-03 7.739137e-02
 2 -1 0 0 101   0  0.000000e+00  0.000000e+00  1.243928e+03  1.243928e+03 0.0 0.0 9.0
21 -1 0 0 103 101  0.000000e+00  0.000000e+00 -4.313602e+03  4.313602e+03 0.0 0.0 9.0
22  1 1 2   0   0 -1.560145e+02 -9.508650e+02 -4.061776e+03  4.174507e+03 0.0 0.0 9.0
 2  1 1 2 103   0  1.560145e+02  9.508650e+02  9.921021e+02  1.383023e+03 0.0022 0.0 9.0
#pdf 2 21 1.913735e-01 6.636311e-01 5000.0 3.939396e-01 1.427935e-02
</event>
<event>
4 7 1.0 5000.0 7.905138e-03 7.739137e-02
 2 -1 0 0 101   0  0.000000e+00  0.000000e+00  1.866245e+03  1.866245e+03 0.0 0.0 9.0
21 -1 0 0 103 101  0.000000e+00  0.000000e+00 -3.478252e+03  3.478252e+03 0.0 0.0 9.0
 2  1 1 2 103   0  2.136455e+03 -1.359851e+03 -1.098248e+03  2.760395e+03 0.0022 0.0 9.0
22  1 1 2   0   0 -2.136455e+03  1.359851e+03 -5.137587e+02  2.584102e+03 0.0 0.0 9.0
#pdf 2 21 2.871147e-01 5.351156e-01 5000.0 2.652343e-01 5.278484e-02
</event>
<event>
4 7 1.0 5000.0 7.905138e-03 7.739137e-02
21 -1 0 0 103 101  0.000000e+00  0.000000e+00  2.611200e+03  2.611200e+03 0.0 0.0 9.0
 2 -1 0 0 101   0  0.000000e+00  0.000000e+00 -2.446678e+03  2.446678e+03 0.0 0.0 9.0
 2  1 1 2 103   0 -1.641030e+03  6.523192e+02  1.891606e+03  2.587793e+03 0.0022 0.0 9.0
22  1 1 2   0   0  1.641030e+03 -6.523192e+02 -1.727084e+03  2.470085e+03 0.0 0.0 9.0
#pdf 21 2 4.017231e-01 3.764120e-01 5000.0 1.025494e-02 1.408820e-02
</event>
<event>
4 7 1.0 5000.0 7.905138e-03 7.739137e-02
21 -1 0 0 103 101  0.000000e+00  0.000000e+00  2.172898e+03  2.172898e+03 0.0 0.0 9.0
 2 -1 0 0 101   0  0.000000e+00  0.000000e+00 -2.871108e+03  2.871108e+03 0.0 0.0 9.0
22  1 1 2   0   0 -1.127838e+03 -2.199747e+03  1.174914e+01  2.472052e+03 0.0 0.0 9.0
 2  1 1 2 103   0  1.127838e+03  2.199747e+03 -7.099592e+02  2.571954e+03 0.0022 0.0 9.0
#pdf 21 2 3.342920e-01 4.417089e-01 5000.0 2.366674e-02 6.151613e-03
</event>
<event>
4 7 1.0 5000.0 7.905138e-03 7.739137e-02
21 -1 0 0 103 101  0.000000e+00  0.000000e+00  2.739513e+03  2.739513e+03 0.0 0.0 9.0
 2 -1 0 0 101   0  0.000000e+00  0.000000e+00 -2.317085e+03  2.317085e+03 0.0 0.0 9.0
 2  1 1 2 103   0  8.367572e+02 -2.046710e+03  1.423135e+03  2.629543e+03 0.0022 0.0 9.0
22  1 1 2   0   0 -8.367572e+02  2.046710e+03 -1.000707e+03  2.427055e+03 0.0 0.0 9.0
#pdf 21 2 4.214636e-01 3.564746e-01 5000.0 7.979799e-03 1.801187e-02
</event>
<event>
4 7 1.0 5000.0 7.905138e-03 7.739137e-02
21 -1 0 0 103 101  0.000000e+00  0.000000e+00  3.493080e+03  3.493080e+03 0.0 0.0 9.0
 2 -1 0 0 101   0  0.000000e+00  0.000000e+00 -1.663644e+03  1.663644e+03 0.0 0.0 9.0
22  1 1 2   0   0  7.880694e+02  9.369469e+02  3.135802e+03  3.366330e+03 0.0 0.0 9.0
 2  1 1 2 103   0 -7.880694e+02 -9.369469e+02 -1.306365e+03  1.790395e+03 0.0022 0.0 9.0
#pdf 21 2 5.373970e-01 2.559452e-01 5000.0 1.661451e-03 6.197982e-02
</event>
<event>
4 7 1.0 5000.0 7.905138e-03 7.739137e-02
21 -1 0 0 103 101  0.000000e+00  0.000000e+00  4.019123e+03  4.019123e+03 0.0 0.0 9.0
 2 -1 0 0 101   0  0.000000e+00  0.000000e+00 -1.540422e+03  1.540422e+03 0.0 0.0 9.0
 2  1 1 2 103   0 -7.369027e+02 -1.269701e+03 -1.005039e+03  1.779121e+03 0.0022 0.0 9.0
22  1 1 2   0   0  7.369027e+02  1.269701e+03  3.483740e+03  3.780425e+03 0.0 0.0 9.0
#pdf 21 2 6.183266e-01 2.369880e-01 5000.0 4.764172e-04 7.851027e-02
</event>
<event>
4 7 1.0 5000.0 7.905138e-03 7.739137e-02
 2 -1 0 0 101   0  0.000000e+00  0.000000e+00  1.567588e+03  1.567588e+03 0.0 0.0 9.0
21 -1 0 0 103 101  0.000000e+00  0.000000e+00 -4.007374e+03  4.007374e+03 0.0 0.0 9.0
22  1 1 2   0   0  1.609576e+03 -5.871909e+00  9.168207e+02  1.852385e+03 0.0 0.0 9.0
 2  1 1 2 103   0 -1.609576e+03  5.871909e+00 -3.356607e+03  3.722577e+03 0.0022 0.0 9.0
#pdf 2 21 2.411673e-01 6.165191e-01 5000.0 3.254890e-01 2.433714e-02
</event>
<event>
4 7 1.0 5000.0 7.905138e-03 7.739137e-02
 2 -1 0 0 101   0  0.000000e+00  0.000000e+00  1.856932e+03  1.856932e+03 0.0 0.0 9.0
21 -1 0 0 103 101  0.000000e+00  0.000000e+00 -3.405594e+03  3.405594e+03 0.0 0.0 9.0
 2  1 1 2 103   0 -1.424649e+03  3.022558e+02 -2.919434e+03  3.262526e+03 0.0022 0.0 9.0
22  1 1 2   0   0  1.424649e+03 -3.022558e+02  1.370773e+03  2.000000e+03 0.0 0.0 9.0
#pdf 2 21 2.856819e-01 5.239375e-01 5000.0 2.670472e-01 5.802177e-02
</event>
<event>
4 7 1.0 5000.0 7.905138e-03 7.739137e-02
21 -1 0 0 103 101  0.000000e+00  0.000000e+00  1.924749e+03  1.924749e+03 0.0 0.0 9.0
 2 -1 0 0 101   0  0.000000e+00  0.000000e+00 -3.302924e+03  3.302924e+03 0.0 0.0 9.0
 2  1 1 2 103   0 -1.969876e+03  6.539466e+02 -2.173105e+03  3.005069e+03 0.0022 0.0 9.0
22  1 1 2   0   0  1.969876e+03 -6.539466e+02  7.949300e+02  2.222604e+03 0.0 0.0 9.0
#pdf 21 2 2.961153e-01 5.081422e-01 5000.0 3.780949e-02 2.517615e-03
</event>
<event>
4 7 1.0 5000.0 7.905138e-03 7.739137e-02
 2 -1 0 0 101   0  0.000000e+00  0.000000e+00  2.167302e+03  2.167302e+03 0.0 0.0 9.0
21 -1 0 0 103 101  0.000000e+00  0.000000e+00 -2.698805e+03  2.698805e+03 0.0 0.0 9.0
 2  1 1 2 103   0  2.378942e+03 -3.280539e+02 -5.540765e+02  2.464546e+03 0.0022 0.0 9.0
22  1 1 2   0   0 -2.378942e+03  3.280539e+02  2.257342e+01  2.401561e+03 0.0 0.0 9.0
#pdf 2 21 3.334311e-01 4.152008e-01 5000.0 2.098454e-01 1.293859e-01
</event>
<event>
4 7 1.0 5000.0 7.905138e-03 7.739137e-02
21 -1 0 0 103 101  0.000000e+00  0.000000e+00  3.131410e+03  3.131410e+03 0.0 0.0 9.0
 2 -1 0 0 101   0  0.000000e+00  0.000000e+00 -2.036300e+03  2.036300e+03 0.0 0.0 9.0
22  1 1 2   0   0 -2.243008e+03 -1.073423e+03  9.782940e+01  2.488552e+03 0.0 0.0 9.0
 2  1 1 2 103   0  2.243008e+03  1.073423e+03  9.972801e+02  2.679158e+03 0.0022 0.0 9.0
#pdf 21 2 4.817554e-01 3.132770e-01 5000.0 3.615203e-03 3.062789e-02
</event>
<event>
4 7 1.0 5000.0 7.905138e-03 7.739137e-02
 2 -1 0 0 101   0  0.000000e+00  0.000000e+00  2.457858e+03  2.457858e+03 0.0 0.0 9.0
21 -1 0 0 103 101  0.000000e+00  0.000000e+00 -2.837225e+03  2.837225e+03 0.0 0.0 9.0
22  1 1 2   0   0 -2.116315e+01  5.123252e+02  2.407468e+03  2.461469e+03 0.0 0.0 9.0
 2  1 1 2 103   0  2.116315e+01 -5.123252e+02 -2.786834e+03  2.833615e+03 0.0022 0.0 9.0
#pdf 2 21 3.781321e-01 4.364961e-01 5000.0 1.629683e-01 1.122967e-01
</event>
<event>
4 7 1.0 5000.0 7.905138e-03 7.739137e-02
 2 -1 0 0 101   0  0.000000e+00  0.000000e+00  3.718169e+03  3.718169e+03 0.0 0.0 9.0
21 -1 0 0 103 101  0.000000e+00  0.000000e+00 -1.724004e+03  1.724004e+03 0.0 0.0 9.0
 2  1 1 2 103   0  1.077929e+03  1.071843e+03 -1.178956e+03  1.923725e+03 0.0022 0.0 9.0
22  1 1 2   0   0 -1.077929e+03 -1.071843e+03  3.173121e+03  3.518448e+03 0.0 0.0 9.0
#pdf 2 21 5.720260e-01 2.652314e-01 5000.0 3.789780e-02 2.934239e-01
</event>
<event>
4 7 1.0 5000.0 7.905138e-03 7.739137e-02
21 -1 0 0 103 101  0.000000e+00  0.000000e+00  3.106200e+03  3.106200e+03 0.0 0.0 9.0
 2 -1 0 0 101   0  0.000000e+00  0.000000e+00 -2.159706e+03  2.159706e+03 0.0 0.0 9.0
 2  1 1 2 103   0 -1.056913e+02 -2.516411e+03  1.087389e+03  2.743339e+03 0.0022 0.0 9.0
22  1 1 2   0   0  1.056913e+02  2.516411e+03 -1.408943e+02  2.522567e+03 0.0 0.0 9.0
#pdf 21 2 4.778769e-01 3.322624e-01 5000.0 3.810211e-03 2.426408e-02
</event>
<event>
4 7 1.0 5000.0 7.905138e-03 7.739137e-02
 2 -1 0 0 101   0  0.000000e+00  0.000000e+00  3.761827e+03  3.761827e+03 0.0 0.0 9.0
21 -1 0 0 103 101  0.000000e+00  0.000000e+00 -1.714535e+03  1.714535e+03 0.0 0.0 9.0
22  1 1 2   0   0  2.727939e+02 -2.423854e+03  1.786256e+03  3.023276e+03 0.0 0.0 9.0
 2  1 1 2 103   0 -2.727939e+02  2.423854e+03  2.610354e+02  2.453085e+03 0.0022 0.0 9.0
#pdf 2 21 5.787425e-01 2.637746e-01 5000.0 3.556100e-02 2.953364e-01
</event>
<event>
4 7 1.0 5000.0 7.905138e-03 7.739137e-02
21 -1 0 0 103 101  0.000000e+00  0.000000e+00  2.489716e+03  2.489716e+03 0.0 0.0 9.0
 2 -1 0 0 101   0  0.000000e+00  0.000000e+00 -2.474527e+03  2.474527e+03 0.0 0.0 9.0
22  1 1 2   0   0 -1.774334e+03  1.080002e+03 -1.351163e+03  2.477964e+03 0.0 0.0 9.0
 2  1 1 2 103   0  1.774334e+03 -1.080002e+03  1.366353e+03  2.486279e+03 0.0022 0.0 9.0
#pdf 21 2 3.830333e-01 3.806965e-01 5000.0 1.297382e-02 1.335920e-02
</event>
<event>
4 7 1.0 5000.0 7.905138e-03 7.739137e-02
21 -1 0 0 103 101  0.000000e+00  0.000000e+00  3.373587e+03  3.373587e+03 0.0 0.0 9.0
 2 -1 0 0 101   0  0.000000e+00  0.000000e+00 -1.821516e+03  1.821516e+03 0.0 0.0 9.0
22  1 1 2   0   0 -8.590701e+02  2.189151e+03  1.597557e+03  2.842987e+03 0.0 0.0 9.0
 2  1 1 2 103   0  8.590701e+02 -2.189151e+03 -4.548666e+01  2.352117e+03 0.0022 0.0 9.0
#pdf 21 2 5.190134e-01 2.802333e-01 5000.0 2.161605e-03 4.589269e-02
</event>
<event>
4 7 1.0 5000.0 7.905138e-03 7.739137e-02
21 -1 0 0 103 101  0.000000e+00  0.000000e+00  2.418444e+03  2.418444e+03 0.0 0.0 9.0
 2 -1 0 0 101   0  0.000000e+00  0.000000e+00 -2.541888e+03  2.541888e+03 0.0 0.0 9.0
22  1 1 2   0   0  1.033594e+03 -1.993252e+03  9.902890e+02  2.453985e+03 0.0 0.0 9.0
 2  1 1 2 103   0 -1.033594e+03  1.993252e+03 -1.113733e+03  2.506346e+03 0.0022 0.0 9.0
#pdf 21 2 3.720682e-01 3.910596e-01 5000.0 1.485347e-02 1.172604e-02
</event>
<event>
4 7 1.0 5000.0 7.905138e-03 7.739137e-02
 2 -1 0 0 101   0  0.000000e+00  0.000000e+00  2.824072e+03  2.824072e+03 0.0 0.0 9.0
21 -1 0 0 103 101  0.000000e+00  0.000000e+00 -2.202565e+03  2.202565e+03 0.0 0.0 9.0
 2  1 1 2 103   0 -3.410914e+02 -1.128124e+03  2.525748e+03  2.787187e+03 0.0022 0.0 9.0
22  1 1 2   0   0  3.410914e+02  1.128124e+03 -1.904241e+03  2.239451e+03 0.0 0.0 9.0
#pdf 2 21 4.344727e-01 3.388562e-01 5000.0 1.138501e-01 2.037974e-01
</event>
<event>
4 7 1.0 5000.0 7.905138e-03 7.739137e-02
21 -1 0 0 103 101  0.000000e+00  0.000000e+00  1.600660e+03  1.600660e+03 0.0 0.0 9.0
 2 -1 0 0 101   0  0.000000e+00  0.000000e+00 -4.031620e+03  4.031620e+03 0.0 0.0 9.0
22  1 1 2   0   0  2.356875e+03 -8.145305e+02 -6.781546e+02  2.584224e+03 0.0 0.0 9.0
 2  1 1 2 103   0 -2.356875e+03  8.145305e+02 -1.752806e+03  3.048056e+03 0.0022 0.0 9.0
#pdf 21 2 2.462554e-01 6.202493e-01 5000.0 6.984931e-02 4.615044e-04
</event>
<event>
4 7 1.0 5000.0 7.905138e-03 7.739137e-02
21 -1 0 0 103 101  0.000000e+00  0.000000e+00  4.122755e+03  4.122755e+03 0.0 0.0 9.0
 2 -1 0 0 101   0  0.000000e+00  0.000000e+00 -1.509414e+03  1.509414e+03 0.0 0.0 9.0
 2  1 1 2 103   0  2.119180e+03 -3.247873e+02 -1.330537e+02  2.148049e+03 0.0022 0.0 9.0
22  1 1 2   0   0 -2.119180e+03  3.247873e+02  2.746395e+03  3.484121e+03 0.0 0.0 9.0
#pdf 21 2 6.342701e-01 2.322176e-01 5000.0 3.641541e-04 8.330050e-02
</event>
<event>
4 7 1.0 5000.0 7.905138e-03 7.739137e-02
 2 -1 0 0 101   0  0.000000e+00  0.000000e+00  3.914084e+03  3.914084e+03 0.0 0.0 9.0
21 -1 0 0 103 101  0.000000e+00  0.000000e+00 -1.649182e+03  1.649182e+03 0.0 0.0 9.0
 2  1 1 2 103   0 -1.039570e+03  1.518048e+03 -7.858200e+02  2.000672e+03 0.0022 0.0 9.0
22  1 1 2   0   0  1.039570e+03 -1.518048e+03  3.050722e+03  3.562595e+03 0.0 0.0 9.0
#pdf 2 21 6.021668e-01 2.537203e-01 5000.0 2.823744e-02 3.086213e-01
</event>
<event>
4 7 1.0 5000.0 7.905138e-03 7.739137e-02
 2 -1 0 0 101   0  0.000000e+00  0.000000e+00  3.504783e+03  3.504783e+03 0.0 0.0 9.0
21 -1 0 0 103 101  0.000000e+00  0.000000e+00 -1.803585e+03  1.803585e+03 0.0 0.0 9.0
22  1 1 2   0   0 -9.021101e+02 -1.271496e+03 -1.231706e+03  1.986858e+03 0.0 0.0 9.0
 2  1 1 2 103   0  9.021101e+02  1.271496e+03  2.932904e+03  3.321511e+03 0.0022 0.0 9.0
#pdf 2 21 5.391974e-01 2.774746e-01 5000.0 5.095560e-02 2.775098e-01
</event>
<event>
4 7 1.0 5000.0 7.905138e-03 7.739137e-02
21 -1 0 0 103 101  0.000000e+00  0.000000e+00  1.771339e+03  1.771339e+03 0.0 0.0 9.0
 2 -1 0 0 101   0  0.000000e+00  0.000000e+00 -3.443779e+03  3.443779e+03 0.0 0.0 9.0
 2  1 1 2 103   0 -1.711379e+03  1.610373e+03 -3.357816e+01  2.350159e+03 0.0022 0.0 9.0
22  1 1 2   0   0  1.711379e+03 -1.610373e+03 -1.638862e+03  2.864959e+03 0.0 0.0 9.0
#pdf 21 2 2.725136e-01 5.298121e-01 5000.0 5.046178e-02 1.855051e-03
</event>
<event>
4 7 1.0 5000.0 7.905138e-03 7.739137e-02
21 -1 0 0 103 101  0.000000e+00  0.000000e+00  4.189282e+03  4.189282e+03 0.0 0.0 9.0
 2 -1 0 0 101   0  0.000000e+00  0.000000e+00 -1.486389e+03  1.486389e+03 0.0 0.0 9.0
22  1 1 2   0   0  6.343114e+02  1.525567e+03 -7.752776e+02  1.825037e+03 0.0 0.0 9.0
 2  1 1 2 103   0 -6.343114e+02 -1.525567e+03  3.478171e+03  3.850633e+03 0.0022 0.0 9.0
#pdf 21 2 6.445049e-01 2.286752e-01 5000.0 3.050951e-04 8.707940e-02
</event>
<event>
4 7 1.0 5000.0 7.905138e-03 7.739137e-02
21 -1 0 0 103 101  0.000000e+00  0.000000e+00  4.188935e+03  4.188935e+03 0.0 0.0 9.0
 2 -1 0 0 101   0  0.000000e+00  0.000000e+00 -1.365004e+03  1.365004e+03 0.0 0.0 9.0
 2  1 1 2 103   0  1.255733e+03 -1.559953e+03 -1.055903e+02  2.005359e+03 0.0022 0.0 9.0
22  1 1 2   0   0 -1.255733e+03  1.559953e+03  2.929521e+03  3.548579e+03 0.0 0.0 9.0
#pdf 21 2 6.444515e-01 2.100006e-01 5000.0 3.053827e-04 1.105169e-01
</event>
<event>
4 7 1.0 5000.0 7.905138e-03 7.739137e-02
21 -1 0 0 103 101  0.000000e+00  0.000000e+00  1.357425e+03  1.357425e+03 0.0 0.0 9.0
 2 -1 0 0 101   0  0.000000e+00  0.000000e+00 -4.548961e+03  4.548961e+03 0.0 0.0 9.0
 2  1 1 2 103   0  2.036565e+03  1.077123e+03 -2.702410e+03  3.551171e+03 0.0022 0.0 9.0
22  1 1 2   0   0 -2.036565e+03 -1.077123e+03 -4.891259e+02  2.355215e+03 0.0 0.0 9.0
#pdf 21 2 2.088345e-01 6.998401e-01 5000.0 1.121589e-01 1.085465e-04
</event>
<event>
4 7 1.0 5000.0 7.905138e-03 7.739137e-02
 2 -1 0 0 101   0  0.000000e+00  0.000000e+00  1.690665e+03  1.690665e+03 0.0 0.0 9.0
21 -1 0 0 103 101  0.000000e+00  0.000000e+00 -3.707849e+03  3.707849e+03 0.0 0.0 9.0
 2  1 1 2 103   0 -1.139685e+03 -2.167267e+03 -1.571681e+03  2.909658e+03 0.0022 0.0 9.0
22  1 1 2   0   0  1.139685e+03  2.167267e+03 -4.455027e+02  2.488855e+03 0.0 0.0 9.0
#pdf 2 21 2.601023e-01 5.704383e-01 5000.0 3.001686e-01 3.846728e-02
</event>
<event>
4 7 1.0 5000.0 7.905138e-03 7.739137e-02
 2 -1 0 0 101   0  0.000000e+00  0.000000e+00  2.116059e+03  2.116059e+03 0.0 0.0 9.0
21 -1 0 0 103 101  0.000000e+00  0.000000e+00 -3.094052e+03  3.094052e+03 0.0 0.0 9.0
 2  1 1 2 103   0  9.688094e-01  1.712814e+03 -2.424309e+03  2.968334e+03 0.0022 0.0 9.0
22  1 1 2   0   0 -9.688094e-01 -1.712814e+03  1.446316e+03  2.241777e+03 0.0 0.0 9.0
#pdf 2 21 3.255475e-01 4.760080e-01 5000.0 2.188172e-01 8.469613e-02
</event>
<event>
4 7 1.0 5000.0 7.905138e-03 7.739137e-02
 2 -1 0 0 101   0  0.000000e+00  0.000000e+00  1.443067e+03  1.443067e+03 0.0 0.0 9.0
21 -1 0 0 103 101  0.000000e+00  0.000000e+00 -4.336439e+03  4.336439e+03 0.0 0.0 9.0
22  1 1 2   0   0  1.900965e+03 -4.271685e+02 -3.259120e+03  3.797105e+03 0.0 0.0 9.0
 2  1 1 2 103   0 -1.900965e+03  4.271685e+02  3.657487e+02  1.982401e+03 0.0022 0.0 9.0
#pdf 2 21 2.220103e-01 6.671444e-01 5000.0 3.516589e-01 1.367933e-02
</event>
<event>
4 7 1.0 5000.0 7.905138e-03 7.739137e-02
 2 -1 0 0 101   0  0.000000e+00  0.000000e+00  2.089195e+03  2.089195e+03 0.0 0.0 9.0
21 -1 0 0 103 101  0.000000e+00  0.000000e+00 -2.996378e+03  2.996378e+03 0.0 0.0 9.0
 2  1 1 2 103   0  1.567791e+03  1.496837e+03  8.163891e+02  2.316243e+03 0.0022 0.0 9.0
22  1 1 2   0   0 -1.567791e+03 -1.496837e+03 -1.723572e+03  2.769330e+03 0.0 0.0 9.0
#pdf 2 21 3.214146e-01 4.609812e-01 5000.0 2.235999e-01 9.456245e-02
</event>
<event>
4 7 1.0 5000.0 7.905138e-03 7.739137e-02
21 -1 0 0 103 101  0.000000e+00  0.000000e+00  4.469672e+03  4.469672e+03 0.0 0.0 9.0
 2 -1 0 0 101   0  0.000000e+00  0.000000e+00 -1.417538e+03  1.417538e+03 0.0 0.0 9.0
 2  1 1 2 103   0 -1.676655e+03 -3.564304e+01  3.721199e+03  4.081638e+03 0.0022 0.0 9.0
22  1 1 2   0   0  1.676655e+03  3.564304e+01 -6.690649e+02  1.805572e+03 0.0 0.0 9.0
#pdf 21 2 6.876419e-01 2.180828e-01 5000.0 1.381668e-04 9.969533e-02
</event>
<event>
4 7 1.0 5000.0 7.905138e-03 7.739137e-02
21 -1 0 0 103 101  0.000000e+00  0.000000e+00  3.857284e+03  3.857284e+03 0.0 0.0 9.0
 2 -1 0 0 101   0  0.000000e+00  0.000000e+00 -1.595176e+03  1.595176e+03 0.0 0.0 9.0
 2  1 1 2 103   0 -6.095758e+02 -6.704952e+02 -1.406752e+03  1.673349e+03 0.0022 0.0 9.0
22  1 1 2   0   0  6.095758e+02  6.704952e+02  3.668860e+03  3.779111e+03 0.0 0.0 9.0
#pdf 21 2 5.934283e-01 2.454116e-01 5000.0 7.123416e-04 7.058206e-02
</event>
<event>
4 7 1.0 5000.0 7.905138e-03 7.739137e-02
21 -1 0 0 103 101  0.000000e+00  0.000000e+00  4.105605e+03  4.105605e+03 0.0 0.0 9.0
 2 -1 0 0 101   0  0.000000e+00  0.000000e+00 -1.601196e+03  1.601196e+03 0.0 0.0 9.0
22  1 1 2   0   0  1.396349e+03 -1.509145e+03 -4.525756e+02  2.105264e+03 0.0 0.0 9.0
 2  1 1 2 103   0 -1.396349e+03  1.509145e+03  2.956985e+03  3.601537e+03 0.0022 0.0 9.0
#pdf 21 2 6.316315e-01 2.463378e-01 5000.0 3.808936e-04 6.978008e-02
</event>
<event>
4 7 1.0 5000.0 7.905138e-03 7.739137e-02
 2 -1 0 0 101   0  0.000000e+00  0.000000e+00  1.687652e+03  1.687652e+03 0.0 0.0 9.0
21 -1 0 0 103 101  0.000000e+00  0.000000e+00 -3.892357e+03  3.892357e+03 0.0 0.0 9.0
22  1 1 2   0   0  2.065253e+03  1.004027e+03 -2.341415e+03  3.279568e+03 0.0 0.0 9.0
 2  1 1 2 103   0 -2.065253e+03 -1.004027e+03  1.367108e+02  2.300441e+03 0.0022 0.0 9.0
#pdf 2 21 2.596388e-01 5.988241e-01 5000.0 3.007797e-01 2.920663e-02
</event>
<event>
4 7 1.0 5000.0 7.905138e-03 7.739137e-02
21 -1 0 0 103 101  0.000000e+00  0.000000e+00  2.658991e+03  2.658991e+03 0.0 0.0 9.0
 2 -1 0 0 101   0  0.000000e+00  0.000000e+00 -2.356196e+03  2.356196e+03 0.0 0.0 9.0
 2  1 1 2 103   0 -4.537660e+02  1.941010e+03  1.667995e+03  2.599159e+03 0.0022 0.0 9.0
22  1 1 2   0   0  4.537660e+02 -1.941010e+03 -1.365200e+03  2.416028e+03 0.0 0.0 9.0
#pdf 21 2 4.090755e-01 3.624917e-01 5000.0 9.343178e-03 1.673006e-02
</event>
<event>
4 7 1.0 5000.0 7.905138e-03 7.739137e-02
 2 -1 0 0 101   0  0.000000e+00  0.000000e+00  3.619395e+03  3.619395e+03 0.0 0.0 9.0
21 -1 0 0 103 101  0.000000e+00  0.000000e+00 -1.680976e+03  1.680976e+03 0.0 0.0 9.0
 2  1 1 2 103   0 -1.142400e+03  1.197212e+02 -1.376075e+03  1.792482e+03 0.0022 0.0 9.0
22  1 1 2   0   0  1.142400e+03 -1.197212e+02  3.314494e+03  3.507889e+03 0.0 0.0 9.0
#pdf 2 21 5.568300e-01 2.586117e-01 5000.0 4.360813e-02 3.021353e-01
</event>
<event>
4 7 1.0 5000.0 7.905138e-03 7.739137e-02
21 -1 0 0 103 101  0.000000e+00  0.000000e+00  4.356022e+03  4.356022e+03 0.0 0.0 9.0
 2 -1 0 0 101   0  0.000000e+00  0.000000e+00 -1.551811e+03  1.551811e+03 0.0 0.0 9.0
 2  1 1 2 103   0  1.009958e+03 -1.965220e+02  4.114873e+03  4.241558e+03 0.0022 0.0 9.0
22  1 1 2   0   0 -1.009958e+03  1.965220e+02 -1.310662e+03  1.666275e+03 0.0 0.0 9.0
#pdf 21 2 6.701572e-01 2.387402e-01 5000.0 1.922747e-04 7.681718e-02
</event>
<event>
4 7 1.0 5000.0 7.905138e-03 7.739137e-02
21 -1 0 0 103 101  0.000000e+00  0.000000e+00  1.635325e+03  1.635325e+03 0.0 0.0 9.0
 2 -1 0 0 101   0  0.000000e+00  0.000000e+00 -3.674100e+03  3.674100e+03 0.0 0.0 9.0
 2  1 1 2 103   0 -1.548649e+02 -2.399448e+03 -1.535407e+03  2.852860e+03 0.0022 0.0 9.0
22  1 1 2   0   0  1.548649e+02  2.399448e+03 -5.033673e+02  2.456565e+03 0.0 0.0 9.0
#pdf 21 2 2.515885e-01 5.652462e-01 5000.0 6.544043e-02 1.102401e-03
</event>
<event>
4 7 1.0 5000.0 7.905138e-03 7.739137e-02
21 -1 0 0 103 101  0.000000e+00  0.000000e+00  1.664949e+03  1.664949e+03 0.0 0.0 9.0
 2 -1 0 0 101   0  0.000000e+00  0.000000e+00 -3.600776e+03  3.600776e+03 0.0 0.0 9.0
22  1 1 2   0   0 -9.356404e+02  2.139073e+03 -1.747728e+02  2.341282e+03 0.0 0.0 9.0
 2  1 1 2 103   0  9.356404e+02 -2.139073e+03 -1.761054e+03  2.924443e+03 0.0022 0.0 9.0
#pdf 21 2 2.561460e-01 5.539655e-01 5000.0 6.182408e-02 1.303531e-03
</event>
<event>
4 7 1.0 5000.0 7.905138e-03 7.739137e-02
21 -1 0 0 103 101  0.000000e+00  0.000000e+00  2.248925e+03  2.248925e+03 0.0 0.0 9.0
 2 -1 0 0 101   0  0.000000e+00  0.000000e+00 -3.671820e+03  3.671820e+03 0.0 0.0 9.0
 2  1 1 2 103   0 -4.819629e+02  2.737577e+03 -1.462167e+03  3.140788e+03 0.0022 0.0 9.0
22  1 1 2   0   0  4.819629e+02 -2.737577e+03  3.927142e+01  2.779957e+03 0.0 0.0 9.0
#pdf 21 2 3.459884e-01 5.648953e-01 5000.0 2.050491e-02 1.108315e-03
</event>
<event>
4 7 1.0 5000.0 7.905138e-03 7.739137e-02
21 -1 0 0 103 101  0.000000e+00  0.000000e+00  2.536752e+03  2.536752e+03 0.0 0.0 9.0
 2 -1 0 0 101   0  0.000000e+00  0.000000e+00 -2.478115e+03  2.478115e+03 0.0 0.0 9.0
 2  1 1 2 103   0  1.744583e+03 -1.797006e+03 -8.714593e+01  2.506072e+03 0.0022 0.0 9.0
22  1 1 2   0   0 -1.744583e+03  1.797006e+03  1.457826e+02  2.508795e+03 0.0 0.0 9.0
#pdf 21 2 3.902695e-01 3.812485e-01 5000.0 1.184324e-02 1.326735e-02
</event>
<event>
4 7 1.0 5000.0 7.905138e-03 7.739137e-02
 2 -1 0 0 101   0  0.000000e+00  0.000000e+00  2.034632e+03  2.034632e+03 0.0 0.0 9.0
21 -1 0 0 103 101  0.000000e+00  0.000000e+00 -3.057508e+03  3.057508e+03 0.0 0.0 9.0
22  1 1 2   0   0  2.203493e+03 -6.881627e+02  4.526458e+02  2.352411e+03 0.0 0.0 9.0
 2  1 1 2 103   0 -2.203493e+03  6.881627e+02 -1.475523e+03  2.739729e+03 0.0022 0.0 9.0
#pdf 2 21 3.130202e-01 4.703859e-01 5000.0 2.334629e-01 8.830451e-02
</event>
<event>
4 7 1.0 5000.0 7.905138e-03 7.739137e-02
21 -1 0 0 103 101  0.000000e+00  0.000000e+00  2.921104e+03  2.921104e+03 0.0 0.0 9.0
 2 -1 0 0 101   0  0.000000e+00  0.000000e+00 -2.107747e+03  2.107747e+03 0.0 0.0 9.0
22  1 1 2   0   0 -3.613915e+02  1.163602e+03  2.597086e+03  2.868698e+03 0.0 0.0 9.0
 2  1 1 2 103   0  3.613915e+02 -1.163602e+03 -1.783729e+03  2.160153e+03 0.0022 0.0 9.0
#pdf 21 2 4.494006e-01 3.242688e-01 5000.0 5.559886e-03 2.675783e-02
</event>
<event>
4 7 1.0 5000.0 7.905138e-03 7.739137e-02
 2 -1 0 0 101   0  0.000000e+00  0.000000e+00  4.312196e+03  4.312196e+03 0.0 0.0 9.0
21 -1 0 0 103 101  0.000000e+00  0.000000e+00 -1.438831e+03  1.438831e+03 0.0 0.0 9.0
 2  1 1 2 103   0 -2.308778e+03  8.970275e+02  1.132543e+03  2.723558e+03 0.0022 0.0 9.0
22  1 1 2   0   0  2.308778e+03 -8.970275e+02  1.740822e+03  3.027470e+03 0.0 0.0 9.0
#pdf 2 21 6.634148e-01 2.213587e-01 5000.0 1.431746e-02 3.525509e-01
</event>
<event>
4 7 1.0 5000.0 7.905138e-03 7.739137e-02
21 -1 0 0 103 101  0.000000e+00  0.000000e+00  2.191712e+03  2.191712e+03 0.0 0.0 9.0
 2 -1 0 0 101   0  0.000000e+00  0.000000e+00 -2.031930e+03  2.031930e+03 0.0 0.0 9.0
 2  1 1 2 103   0 -1.403242e+03 -9.898277e+02  1.307373e+03  2.158257e+03 0.0022 0.0 9.0
22  1 1 2   0   0  1.403242e+03  9.898277e+02 -1.147591e+03  2.065384e+03 0.0 0.0 9.0
#pdf 21 2 3.371864e-01 3.126046e-01 5000.0 2.283803e-02 3.088410e-02
</event>
<event>
4 7 1.0 5000.0 7.905138e-03 7.739137e-02
21 -1 0 0 103 101  0.000000e+00  0.000000e+00  2.141652e+03  2.141652e+03 0.0 0.0 9.0
 2 -1 0 0 101   0  0.000000e+00  0.000000e+00 -2.734408e+03  2.734408e+03 0.0 0.0 9.0
 2  1 1 2 103   0  1.740177e+03  1.257905e+03  8.280287e+02  2.301342e+03 0.0022 0.0 9.0
22  1 1 2   0   0 -1.740177e+03 -1.257905e+03 -1.420785e+03  2.574718e+03 0.0 0.0 9.0
#pdf 21 2 3.294849e-01 4.206781e-01 5000.0 2.510407e-02 8.060250e-03
</event>
<event>
4 7 1.0 5000.0 7.905138e-03 7.739137e-02
21 -1 0 0 103 101  0.000000e+00  0.000000e+00  2.895838e+03  2.895838e+03 0.0 0.0 9.0
 2 -1 0 0 101   0  0.000000e+00  0.000000e+00 -2.179118e+03  2.179118e+03 0.0 0.0 9.0
 2  1 1 2 103   0 -2.077308e+03 -1.412211e+03  3.293667e+02  2.533383e+03 0.0022 0.0 9.0
22  1 1 2   0   0  2.077308e+03  1.412211e+03  3.873533e+02  2.541573e+03 0.0 0.0 9.0
#pdf 21 2 4.455135e-01 3.352489e-01 5000.0 5.847199e-03 2.338969e-02
</event>
<event>
4 7 1.0 5000.0 7.905138e-03 7.739137e-02
 2 -1 0 0 101   0  0.000000e+00  0.000000e+00  2.045393e+03  2.045393e+03 0.0 0.0 9.0
21 -1 0 0 103 101  0.000000e+00  0.000000e+00 -2.961473e+03  2.961473e+03 0.0 0.0 9.0
22  1 1 2   0   0  2.233807e+03 -1.020955e+03 -6.192954e+02  2.532937e+03 0.0 0.0 9.0
 2  1 1 2 103   0 -2.233807e+03  1.020955e+03 -2.967847e+02  2.473929e+03 0.0022 0.0 9.0
#pdf 2 21 3.146759e-01 4.556113e-01 5000.0 2.315010e-01 9.828062e-02
</event>
<event>
4 7 1.0 5000.0 7.905138e-03 7.739137e-02
 2 -1 0 0 101   0  0.000000e+00  0.000000e+00  2.355952e+03  2.355952e+03 0.0 0.0 9.0
21 -1 0 0 103 101  0.000000e+00  0.000000e+00 -2.652785e+03  2.652785e+03 0.0 0.0 9.0
 2  1 1 2 103   0 -1.298646e+03  1.668012e+03  1.188509e+03  2.425139e+03 0.0022 0.0 9.0
22  1 1 2   0   0  1.298646e+03 -1.668012e+03 -1.485342e+03  2.583599e+03 0.0 0.0 9.0
#pdf 2 21 3.624542e-01 4.081208e-01 5000.0 1.786191e-01 1.354258e-01
</event>
<event>
4 7 1.0 5000.0 7.905138e-03 7.739137e-02
 2 -1 0 0 101   0  0.000000e+00  0.000000e+00  1.832581e+03  1.832581e+03 0.0 0.0 9.0
21 -1 0 0 103 101  0.000000e+00  0.000000e+00 -3.432827e+03  3.432827e+03 0.0 0.0 9.0
 2  1 1 2 103   0  1.066106e+03 -2.755334e+02 -3.165549e+03  3.351597e+03 0.0022 0.0 9.0
22  1 1 2   0   0 -1.066106e+03  2.755334e+02  1.565303e+03  1.913811e+03 0.0 0.0 9.0
#pdf 2 21 2.819355e-01 5.281272e-01 5000.0 2.718051e-01 5.602132e-02
</event>
<event>
4 7 1.0 5000.0 7.905138e-03 7.739137e-02
21 -1 0 0 103 101  0.000000e+00  0.000000e+00  2.087521e+03  2.087521e+03 0.0 0.0 9.0
 2 -1 0 0 101   0  0.000000e+00  0.000000e+00 -2.810727e+03  2.810727e+03 0.0 0.0 9.0
22  1 1 2   0   0  1.254996e+03 -1.101805e+03 -2.135600e+03  2.711047e+03 0.0 0.0 9.0
 2  1 1 2 103   0 -1.254996e+03  1.101805e+03  1.412394e+03  2.187200e+03 0.0022 0.0 9.0
#pdf 21 2 3.211570e-01 4.324195e-01 5000.0 2.779619e-02 6.933306e-03
</event>
<event>
4 7 1.0 5000.0 7.905138e-03 7.739137e-02
 2 -1 0 0 101   0  0.000000e+00  0.000000e+00  9.863947e+02  9.863947e+02 0.0 0.0 9.0
21 -1 0 0 103 101  0.000000e+00  0.000000e+00 -4.818578e+03  4.818578e+03 0.0 0.0 9.0
22  1 1 2   0   0 -1.678547e+03 -6.294296e+02 -2.643215e+02  1.812062e+03 0.0 0.0 9.0
 2  1 1 2 103   0  1.678547e+03  6.294296e+02 -3.567862e+03  3.992911e+03 0.0022 0.0 9.0
#pdf 2 21 1.517530e-01 7.413197e-01 5000.0 4.474836e-01 4.879702e-03
</event>
<event>
4 7 1.0 5000.0 7.905138e-03 7.739137e-02
 2 -1 0 0 101   0  0.000000e+00  0.000000e+00  4.744995e+03  4.744995e+03 0.0 0.0 9.0
21 -1 0 0 103 101  0.000000e+00  0.000000e+00 -1.339796e+03  1.339796e+03 0.0 0.0 9.0
 2  1 1 2 103   0 -1.499412e+02 -1.713004e+03  3.927688e+03  4.287610e+03 0.0022 0.0 9.0
22  1 1 2   0   0  1.499412e+02  1.713004e+03 -5.224885e+02  1.797181e+03 0.0 0.0 9.0
#pdf 2 21 7.299992e-01 2.061224e-01 5000.0 5.816920e-03 3.735970e-01
</event>
<event>
4 7 1.0 5000.0 7.905138e-03 7.739137e-02
 2 -1 0 0 101   0  0.000000e+00  0.000000e+00  1.573958e+03  1.573958e+03 0.0 0.0 9.0
21 -1 0 0 103 101  0.000000e+00  0.000000e+00 -3.957165e+03  3.957165e+03 0.0 0.0 9.0
 2  1 1 2 103   0  9.759423e+02 -1.301409e+03  9.057636e+02  1.861864e+03 0.0022 0.0 9.0
22  1 1 2   0   0 -9.759423e+02  1.301409e+03 -3.288971e+03  3.669259e+03 0.0 0.0 9.0
#pdf 2 21 2.421473e-01 6.087946e-01 5000.0 3.241685e-01 2.638415e-02
</event>
<event>
4 7 1.0 5000.0 7.905138e-03 7.739137e-02
 2 -1 0 0 101   0  0.000000e+00  0.000000e+00  2.438823e+03  2.438823e+03 0.0 0.0 9.0
21 -1 0 0 103 101  0.000000e+00  0.000000e+00 -2.533456e+03  2.533456e+03 0.0 0.0 9.0
22  1 1 2   0   0 -7.485952e+02 -2.010399e+03 -1.303153e+03  2.510041e+03 0.0 0.0 9.0
 2  1 1 2 103   0  7.485952e+02  2.010399e+03  1.208519e+03  2.462238e+03 0.0022 0.0 9.0
#pdf 2 21 3.752035e-01 3.897625e-01 5000.0 1.658228e-01 1.519170e-01
</event>
<event>
4 7 1.0 5000.0 7.905138e-03 7.739137e-02
 2 -1 0 0 101   0  0.000000e+00  0.000000e+00  2.436119e+03  2.436119e+03 0.0 0.0 9.0
21 -1 0 0 103 101  0.000000e+00  0.000000e+00 -2.599105e+03  2.599105e+03 0.0 0.0 9.0
 2  1 1 2 103   0 -8.118715e+02 -9.965768e+02  2.082840e+03  2.447555e+03 0.0022 0.0 9.0
22  1 1 2   0   0  8.118715e+02  9.965768e+02 -2.245826e+03  2.587670e+03 0.0 0.0 9.0
#pdf 2 21 3.747876e-01 3.998623e-01 5000.0 1.662303e-01 1.426996e-01
</event>
<event>
4 7 1.0 5000.0 7.905138e-03 7.739137e-02
 2 -1 0 0 101   0  0.000000e+00  0.000000e+00  2.769017e+03  2.769017e+03 0.0 0.0 9.0
21 -1 0 0 103 101  0.000000e+00  0.000000e+00 -2.677699e+03  2.677699e+03 0.0 0.0 9.0
22  1 1 2   0   0  1.949481e+03 -3.878021e+02 -1.815711e+03  2.692151e+03 0.0 0.0 9.0
 2  1 1 2 103   0 -1.949481e+03  3.878021e+02  1.907029e+03  2.754565e+03 0.0022 0.0 9.0
#pdf 2 21 4.260026e-01 4.119537e-01 5000.0 1.205081e-01 1.321350e-01
</event>
<event>
4 7 1.0 5000.0 7.905138e-03 7.739137e-02
21 -1 0 0 103 101  0.000000e+00  0.000000e+00  1.576372e+03  1.576372e+03 0.0 0.0 9.0
 2 -1 0 0 101   0  0.000000e+00  0.000000e+00 -3.973114e+03  3.973114e+03 0.0 0.0 9.0
 2  1 1 2 103   0 -7.762736e+02 -1.730632e+03 -3.008505e+03  3.556513e+03 0.0022 0.0 9.0
22  1 1 2   0   0  7.762736e+02  1.730632e+03  6.117627e+02  1.992973e+03 0.0 0.0 9.0
#pdf 21 2 2.425188e-01 6.112483e-01 5000.0 7.325318e-02 5.351477e-04
</event>
<event>
4 7 1.0 5000.0 7.905138e-03 7.739137e-02
 2 -1 0 0 101   0  0.000000e+00  0.000000e+00  2.165798e+03  2.165798e+03 0.0 0.0 9.0
21 -1 0 0 103 101  0.000000e+00  0.000000e+00 -2.781643e+03  2.781643e+03 0.0 0.0 9.0
22  1 1 2   0   0 -8.418536e+02 -2.153617e+01 -2.631486e+03  2.762952e+03 0.0 0.0 9.0
 2  1 1 2 103   0  8.418536e+02  2.153617e+01  2.015641e+03  2.184489e+03 0.0022 0.0 9.0
#pdf 2 21 3.331997e-01 4.279451e-01 5000.0 2.101057e-01 1.189572e-01
</event>
<event>
4 7 1.0 5000.0 7.905138e-03 7.739137e-02
 2 -1 0 0 101   0  0.000000e+00  0.000000e+00  2.619445e+03  2.619445e+03 0.0 0.0 9.0
21 -1 0 0 103 101  0.000000e+00  0.000000e+00 -2.453178e+03  2.453178e+03 0.0 0.0 9.0
22  1 1 2   0   0  3.708506e+02  2.462763e+03  5.558643e+02  2.551806e+03 0.0 0.0 9.0
 2  1 1 2 103   0 -3.708506e+02 -2.462763e+03 -3.895981e+02  2.520817e+03 0.0022 0.0 9.0
#pdf 2 21 4.029915e-01 3.774121e-01 5000.0 1.399140e-01 1.636676e-01
</event>
<event>
4 7 1.0 5000.0 7.905138e-03 7.739137e-02
21 -1 0 0 103 101  0.000000e+00  0.000000e+00  2.276126e+03  2.276126e+03 0.0 0.0 9.0
 2 -1 0 0 101   0  0.000000e+00  0.000000e+00 -2.734534e+03  2.734534e+03 0.0 0.0 9.0
22  1 1 2   0   0 -1.078260e+03  2.243372e+03 -5.884959e+01  2.489745e+03 0.0 0.0 9.0
 2  1 1 2 103   0  1.078260e+03 -2.243372e+03 -3.995583e+02  2.520915e+03 0.0022 0.0 9.0
#pdf 21 2 3.501732e-01 4.206975e-01 5000.0 1.947812e-02 8.058258e-03
</event>
<event>
4 7 1.0 5000.0 7.905138e-03 7.739137e-02
 2 -1 0 0 101   0  0.000000e+00  0.000000e+00  2.432611e+03  2.432611e+03 0.0 0.0 9.0
21 -1 0 0 103 101  0.000000e+00  0.000000e+00 -2.577633e+03  2.577633e+03 0.0 0.0 9.0
 2  1 1 2 103   0  3.207160e+02 -1.500573e+03 -2.052178e+03  2.562424e+03 0.0022 0.0 9.0
22  1 1 2   0   0 -3.207160e+02  1.500573e+03  1.907156e+03  2.447820e+03 0.0 0.0 9.0
#pdf 2 21 3.742478e-01 3.965589e-01 5000.0 1.667600e-01 1.456774e-01
</event>
<event>
4 7 1.0 5000.0 7.905138e-03 7.739137e-02
 2 -1 0 0 101   0  0.000000e+00  0.000000e+00  3.651086e+03  3.651086e+03 0.0 0.0 9.0
21 -1 0 0 103 101  0.000000e+00  0.000000e+00 -1.645911e+03  1.645911e+03 0.0 0.0 9.0
22  1 1 2   0   0  1.157594e+03 -2.122324e+03  1.441556e+03  2.814670e+03 0.0 0.0 9.0
 2  1 1 2 103   0 -1.157594e+03  2.122324e+03  5.636188e+02  2.482327e+03 0.0022 0.0 9.0
#pdf 2 21 5.617056e-01 2.532171e-01 5000.0 4.171971e-02 3.092921e-01
</event>
<event>
4 7 1.0 5000.0 7.905138e-03 7.739137e-02
21 -1 0 0 103 101  0.000000e+00  0.000000e+00  3.407277e+03  3.407277e+03 0.0 0.0 9.0
 2 -1 0 0 101   0  0.000000e+00  0.000000e+00 -1.748841e+03  1.748841e+03 0.0 0.0 9.0
 2  1 1 2 103   0 -3.590699e+02  1.834881e+03 -8.282768e+02  2.044935e+03 0.0022 0.0 9.0
22  1 1 2   0   0  3.590699e+02 -1.834881e+03  2.486712e+03  3.111182e+03 0.0 0.0 9.0
#pdf 21 2 5.241964e-01 2.690525e-01 5000.0 2.008939e-03 5.265592e-02
</event>
<event>
4 7 1.0 5000.0 7.905138e-03 7.739137e-02
 2 -1 0 0 101   0  0.000000e+00  0.000000e+00  2.901241e+03  2.901241e+03 0.0 0.0 9.0
21 -1 0 0 103 101  0.000000e+00  0.000000e+00 -2.173609e+03  2.173609e+03 0.0 0.0 9.0
 2  1 1 2 103   0  1.976899e+02 -1.697944e+03 -1.494973e+03  2.270912e+03 0.0022 0.0 9.0
22  1 1 2   0   0 -1.976899e+02  1.697944e+03  2.222605e+03  2.803938e+03 0.0 0.0 9.0
#pdf 2 21 4.463448e-01 3.344014e-01 5000.0 1.049026e-01 2.087561e-01
</event>
<event>
4 7 1.0 5000.0 7.905138e-03 7.739137e-02
21 -1 0 0 103 101  0.000000e+00  0.000000e+00  3.706043e+03  3.706043e+03 0.0 0.0 9.0
 2 -1 0 0 101   0  0.000000e+00  0.000000e+00 -1.689554e+03  1.689554e+03 0.0 0.0 9.0
22  1 1 2   0   0 -2.028315e+03 -8.835412e+02 -2.522157e+02  2.226728e+03 0.0 0.0 9.0
 2  1 1 2 103   0  2.028315e+03  8.835412e+02  2.268705e+03  3.168868e+03 0.0022 0.0 9.0
#pdf 21 2 5.701604e-01 2.599313e-01 5000.0 1.022345e-03 5.895863e-02
</event>
<event>
4 7 1.0 5000.0 7.905138e-03 7.739137e-02
 2 -1 0 0 101   0  0.000000e+00  0.000000e+00  1.983409e+03  1.983409e+03 0.0 0.0 9.0
21 -1 0 0 103 101  0.000000e+00  0.000000e+00 -2.942953e+03  2.942953e+03 0.0 0.0 9.0
22  1 1 2   0   0  1.362315e+03  1.533063e+03  8.222297e+02  2.209581e+03 0.0 0.0 9.0
 2  1 1 2 103   0 -1.362315e+03 -1.533063e+03 -1.781773e+03  2.716782e+03 0.0022 0.0 9.0
#pdf 2 21 3.051399e-01 4.527620e-01 5000.0 2.429218e-01 1.002918e-01
</event>
<event>
4 7 1.0 5000.0 7.905138e-03 7.739137e-02
 2 -1 0 0 101   0  0.000000e+00  0.000000e+00  1.962331e+03  1.962331e+03 0.0 0.0 9.0
21 -1 0 0 103 101  0.000000e+00  0.000000e+00 -3.136702e+03  3.136702e+03 0.0 0.0 9.0
 2  1 1 2 103   0 -1.888777e+03  4.095386e+01 -2.239744e+03  2.930121e+03 0.0022 0.0 9.0
22  1 1 2   0   0  1.888777e+03 -4.095386e+01  1.065373e+03  2.168911e+03 0.0 0.0 9.0
#pdf 2 21 3.018970e-01 4.825695e-01 5000.0 2.468750e-01 8.061766e-02
</event>
<event>
4 7 1.0 5000.0 7.905138e-03 7.739137e-02
 2 -1 0 0 101   0  0.000000e+00  0.000000e+00  3.236556e+03  3.236556e+03 0.0 0.0 9.0
21 -1 0 0 103 101  0.000000e+00  0.000000e+00 -2.033143e+03  2.033143e+03 0.0 0.0 9.0
22  1 1 2   0   0 -2.493616e+02 -1.712204e+03  2.546929e+03  3.079070e+03 0.0 0.0 9.0
 2  1 1 2 103   0  2.493616e+02  1.712204e+03 -1.343516e+03  2.190630e+03 0.0022 0.0 9.0
#pdf 2 21 4.979317e-01 3.127913e-01 5000.0 7.161028e-02 2.337349e-01
</event>
<event>
4 7 1.0 5000.0 7.905138e-03 7.739137e-02
 2 -1 0 0 101   0  0.000000e+00  0.000000e+00  2.853289e+03  2.853289e+03 0.0 0.0 9.0
21 -1 0 0 103 101  0.000000e+00  0.000000e+00 -2.338471e+03  2.338471e+03 0.0 0.0 9.0
22  1 1 2   0   0 -8.069289e+02 -2.443383e+03  4.845270e+02  2.618401e+03 0.0 0.0 9.0
 2  1 1 2 103   0  8.069289e+02  2.443383e+03  3.029106e+01  2.573359e+03 0.0022 0.0 9.0
#pdf 2 21 4.389675e-01 3.597647e-01 5000.0 1.104161e-01 1.813921e-01
</event>
<event>
4 7 1.0 5000.0 7.905138e-03 7.739137e-02
21 -1 0 0 103 101  0.000000e+00  0.000000e+00  3.917097e+03  3.917097e+03 0.0 0.0 9.0
 2 -1 0 0 101   0  0.000000e+00  0.000000e+00 -1.582575e+03  1.582575e+03 0.0 0.0 9.0
 2  1 1 2 103   0 -3.481062e+02 -1.485497e+03 -1.005772e+03  1.827419e+03 0.0022 0.0 9.0
22  1 1 2   0   0  3.481062e+02  1.485497e+03  3.340294e+03  3.672253e+03 0.0 0.0 9.0
#pdf 21 2 6.026303e-01 2.434731e-01 5000.0 6.154973e-04 7.236761e-02
</event>
<event>
4 7 1.0 5000.0 7.905138e-03 7.739137e-02
 2 -1 0 0 101   0  0.000000e+00  0.000000e+00  2.252584e+03  2.252584e+03 0.0 0.0 9.0
21 -1 0 0 103 101  0.000000e+00  0.000000e+00 -3.062599e+03  3.062599e+03 0.0 0.0 9.0
 2  1 1 2 103   0 -1.120413e+03  6.293904e+02  1.912764e+03  2.304371e+03 0.0022 0.0 9.0
22  1 1 2   0   0  1.120413e+03 -6.293904e+02 -2.722779e+03  3.010811e+03 0.0 0.0 9.0
#pdf 2 21 3.465513e-01 4.711690e-01 5000.0 1.953779e-01 8.779580e-02
</event>
<event>
4 7 1.0 5000.0 7.905138e-03 7.739137e-02
21 -1 0 0 103 101  0.000000e+00  0.000000e+00  2.398362e+03  2.398362e+03 0.0 0.0 9.0
 2 -1 0 0 101   0  0.000000e+00  0.000000e+00 -2.530895e+03  2.530895e+03 0.0 0.0 9.0
22  1 1 2   0   0 -3.368637e+02 -2.409655e+03 -4.538170e+02  2.475049e+03 0.0 0.0 9.0
 2  1 1 2 103   0  3.368637e+02  2.409655e+03  3.212832e+02  2.454208e+03 0.0022 0.0 9.0
#pdf 21 2 3.689787e-01 3.893685e-01 5000.0 1.543112e-02 1.197844e-02
</event>
<event>
4 7 1.0 5000.0 7.905138e-03 7.739137e-02
 2 -1 0 0 101   0  0.000000e+00  0.000000e+00  3.030166e+03  3.030166e+03 0.0 0.0 9.0
21 -1 0 0 103 101  0.000000e+00  0.000000e+00 -2.038252e+03  2.038252e+03 0.0 0.0 9.0
22  1 1 2   0   0  2.360040e+02  4.880592e+02  2.969136e+03  3.018222e+03 0.0 0.0 9.0
 2  1 1 2 103   0 -2.360040e+02 -4.880592e+02 -1.977221e+03  2.050196e+03 0.0022 0.0 9.0
#pdf 2 21 4.661794e-01 3.135772e-01 5000.0 9.106928e-02 2.328019e-01
</event>
<event>
4 7 1.0 5000.0 7.905138e-03 7.739137e-02
21 -1 0 0 103 101  0.000000e+00  0.000000e+00  2.778403e+03  2.778403e+03 0.0 0.0 9.0
 2 -1 0 0 101   0  0.000000e+00  0.000000e+00 -2.286813e+03  2.286813e+03 0.0 0.0 9.0
22  1 1 2   0   0 -1.607621e+03 -1.917452e+03 -5.998621e+01  2.502931e+03 0.0 0.0 9.0
 2  1 1 2 103   0  1.607621e+03  1.917452e+03  5.515765e+02  2.562285e+03 0.0022 0.0 9.0
#pdf 21 2 4.274467e-01 3.518174e-01 5000.0 7.389438e-03 1.908629e-02
</event>
<event>
4 7 1.0 5000.0 7.905138e-03 7.739137e-02
 2 -1 0 0 101   0  0.000000e+00  0.000000e+00  2.436788e+03  2.436788e+03 0.0 0.0 9.0
21 -1 0 0 103 101  0.000000e+00  0.000000e+00 -2.343436e+03  2.343436e+03 0.0 0.0 9.0
22  1 1 2   0   0  7.239873e+02 -1.121609e+03 -1.935694e+03  2.351399e+03 0.0 0.0 9.0
 2  1 1 2 103   0 -7.239873e+02  1.121609e+03  2.029046e+03  2.428825e+03 0.0022 0.0 9.0
#pdf 2 21 3.748905e-01 3.605286e-01 5000.0 1.661294e-01 1.806021e-01
</event>
<event>
4 7 1.0 5000.0 7.905138e-03 7.739137e-02
21 -1 0 0 103 101  0.000000e+00  0.000000e+00  1.857960e+03  1.857960e+03 0.0 0.0 9.0
 2 -1 0 0 101   0  0.000000e+00  0.000000e+00 -3.429510e+03  3.429510e+03 0.0 0.0 9.0
 2  1 1 2 103   0  1.733037e+03  1.037303e+03  7.999810e+02  2.172414e+03 0.0022 0.0 9.0
22  1 1 2   0   0 -1.733037e+03 -1.037303e+03 -2.371531e+03  3.115056e+03 0.0 0.0 9.0
#pdf 21 2 2.858400e-01 5.276169e-01 5000.0 4.284449e-02 1.913965e-03
</event>
<event>
4 7 1.0 5000.0 7.905138e-03 7.739137e-02
 2 -1 0 0 101   0  0.000000e+00  0.000000e+00  3.990174e+03  3.990174e+03 0.0 0.0 9.0
21 -1 0 0 103 101  0.000000e+00  0.000000e+00 -1.564859e+03  1.564859e+03 0.0 0.0 9.0
 2  1 1 2 103   0 -1.850728e+03 -4.870981e+02 -5.732864e+02  1.997777e+03 0.0022 0.0 9.0
22  1 1 2   0   0  1.850728e+03  4.870981e+02  2.998601e+03  3.557255e+03 0.0 0.0 9.0
#pdf 2 21 6.138729e-01 2.407475e-01 5000.0 2.502466e-02 3.260559e-01
</event>
<event>
4 7 1.0 5000.0 7.905138e-03 7.739137e-02
 2 -1 0 0 101   0  0.000000e+00  0.000000e+00  3.701499e+03  3.701499e+03 0.0 0.0 9.0
21 -1 0 0 103 101  0.000000e+00  0.000000e+00 -1.662439e+03  1.662439e+03 0.0 0.0 9.0
 2  1 1 2 103   0  1.131084e+03  1.555734e+03 -6.740929e+02  2.038151e+03 0.0022 0.0 9.0
22  1 1 2   0   0 -1.131084e+03 -1.555734e+03  2.713153e+03  3.325787e+03 0.0 0.0 9.0
#pdf 2 21 5.694614e-01 2.557598e-01 5000.0 3.882132e-02 3.059100e-01
</event>
<event>
4 7 1.0 5000.0 7.905138e-03 7.739137e-02
21 -1 0 0 103 101  0.000000e+00  0.000000e+00  1.282429e+03  1.282429e+03 0.0 0.0 9.0
 2 -1 0 0 101   0  0.000000e+00  0.000000e+00 -3.526408e+03  3.526408e+03 0.0 0.0 9.0
22  1 1 2   0   0  1.890695e+03 -2.480325e+02 -2.186312e+03  2.901070e+03 0.0 0.0 9.0
 2  1 1 2 103   0 -1.890695e+03  2.480325e+02 -5.766659e+01  1.907766e+03 0.0022 0.0 9.0
#pdf 21 2 1.972967e-01 5.425242e-01 5000.0 1.303120e-01 1.542489e-03
</event>
<event>
4 7 1.0 5000.0 7.905138e-03 7.739137e-02
 2 -1 0 0 101   0  0.000000e+00  0.000000e+00  1.887141e+03  1.887141e+03 0.0 0.0 9.0
21 -1 0 0 103 101  0.000000e+00  0.000000e+00 -3.358290e+03  3.358290e+03 0.0 0.0 9.0
22  1 1 2   0   0 -2.341930e+02 -2.241817e+03 -1.903603e+03  2.950304e+03 0.0 0.0 9.0
 2  1 1 2 103   0  2.341930e+02  2.241817e+03  4.324534e+02  2.295127e+03 0.0022 0.0 9.0
#pdf 2 21 2.903293e-01 5.166600e-01 5000.0 2.611842e-01 6.161853e-02
</event>
<event>
4 7 1.0 5000.0 7.905138e-03 7.739137e-02
 2 -1 0 0 101   0  0.000000e+00  0.000000e+00  2.700712e+03  2.700712e+03 0.0 0.0 9.0
21 -1 0 0 103 101  0.000000e+00  0.000000e+00 -2.229290e+03  2.229290e+03 0.0 0.0 9.0
22  1 1 2   0   0 -2.088389e+03  1.524305e+02  1.520688e+03  2.587875e+03 0.0 0.0 9.0
 2  1 1 2 103   0  2.088389e+03 -1.524305e+02 -1.049266e+03  2.342128e+03 0.0022 0.0 9.0
#pdf 2 21 4.154942e-01 3.429677e-01 5000.0 1.291392e-01 1.992752e-01
</event>
<event>
4 7 1.0 5000.0 7.905138e-03 7.739137e-02
21 -1 0 0 103 101  0.000000e+00  0.000000e+00  2.682900e+03  2.682900e+03 0.0 0.0 9.0
 2 -1 0 0 101   0  0.000000e+00  0.000000e+00 -2.332413e+03  2.332413e+03 0.0 0.0 9.0
 2  1 1 2 103   0  1.536041e+03  1.130393e+03  1.797981e+03  2.621059e+03 0.0022 0.0 9.0
22  1 1 2   0   0 -1.536041e+03 -1.130393e+03 -1.447495e+03  2.394254e+03 0.0 0.0 9.0
#pdf 21 2 4.127538e-01 3.588327e-01 5000.0 8.915786e-03 1.749686e-02
</event>
<event>
4 7 1.0 5000.0 7.905138e-03 7.739137e-02
 2 -1 0 0 101   0  0.000000e+00  0.000000e+00  2.508310e+03  2.508310e+03 0.0 0.0 9.0
21 -1 0 0 103 101  0.000000e+00  0.000000e+00 -2.453111e+03  2.453111e+03 0.0 0.0 9.0
 2  1 1 2 103   0 -2.085144e+03 -1.981507e+02 -1.301419e+03  2.465924e+03 0.0022 0.0 9.0
22  1 1 2   0   0  2.085144e+03  1.981507e+02  1.356619e+03  2.495497e+03 0.0 0.0 9.0
#pdf 2 21 3.858939e-01 3.774017e-01 5000.0 1.555397e-01 1.636777e-01
</event>
<event>
4 7 1.0 5000.0 7.905138e-03 7.739137e-02
21 -1 0 0 103 101  0.000000e+00  0.000000e+00  1.232401e+03  1.232401e+03 0.0 0.0 9.0
 2 -1 0 0 101   0  0.000000e+00  0.000000e+00 -5.092058e+03  5.092058e+03 0.0 0.0 9.0
 2  1 1 2 103   0 -3.968694e+02  2.069762e+03 -2.203059e+02  2.118951e+03 0.0022 0.0 9.0
22  1 1 2   0   0  3.968694e+02 -2.069762e+03 -3.639351e+03  4.205508e+03 0.0 0.0 9.0
#pdf 21 2 1.896002e-01 7.833935e-01 5000.0 1.442616e-01 1.608457e-05
</event>
<event>
4 7 1.0 5000.0 7.905138e-03 7.739137e-02
21 -1 0 0 103 101  0.000000e+00  0.000000e+00  2.718167e+03  2.718167e+03 0.0 0.0 9.0
 2 -1 0 0 101   0  0.000000e+00  0.000000e+00 -2.073941e+03  2.073941e+03 0.0 0.0 9.0
 2  1 1 2 103   0  7.725281e+02 -2.242613e+03  2.153022e+02  2.381695e+03 0.0022 0.0 9.0
22  1 1 2   0   0 -7.725281e+02  2.242613e+03  4.289234e+02  2.410413e+03 0.0 0.0 9.0
#pdf 21 2 4.181795e-01 3.190678e-01 5000.0 8.321137e-03 2.851685e-02
</event>
<event>
4 7 1.0 5000.0 7.905138e-03 7.739137e-02
21 -1 0 0 103 101  0.000000e+00  0.000000e+00  3.637548e+03  3.637548e+03 0.0 0.0 9.0
 2 -1 0 0 101   0  0.000000e+00  0.000000e+00 -1.747992e+03  1.747992e+03 0.0 0.0 9.0
22  1 1 2   0   0  1.700974e+03 -1.087228e+03  2.558321e+03  3.258893e+03 0.0 0.0 9.0
 2  1 1 2 103   0 -1.700974e+03  1.087228e+03 -6.687657e+02  2.126646e+03 0.0022 0.0 9.0
#pdf 21 2 5.596227e-01 2.689219e-01 5000.0 1.200034e-03 5.274068e-02
</event>
<event>
4 7 1.0 5000.0 7.905138e-03 7.739137e-02
21 -1 0 0 103 101  0.000000e+00  0.000000e+00  2.746830e+03  2.746830e+03 0.0 0.0 9.0
 2 -1 0 0 101   0  0.000000e+00  0.000000e+00 -2.276338e+03  2.276338e+03 0.0 0.0 9.0
 2  1 1 2 103   0 -4.706253e+01  8.822048e+02  2.584852e+03  2.731658e+03 0.0022 0.0 9.0
22  1 1 2   0   0  4.706253e+01 -8.822048e+02 -2.114359e+03  2.291509e+03 0.0 0.0 9.0
#pdf 21 2 4.225892e-01 3.502058e-01 5000.0 7.865747e-03 1.947029e-02
</event>
<event>
4 7 1.0 5000.0 7.905138e-03 7.739137e-02
 2 -1 0 0 101   0  0.000000e+00  0.000000e+00  3.525061e+03  3.525061e+03 0.0 0.0 9.0
21 -1 0 0 103 101  0.000000e+00  0.000000e+00 -1.731036e+03  1.731036e+03 0.0 0.0 9.0
 2  1 1 2 103   0  2.537315e+02  1.936549e+03  2.506058e+03  3.177252e+03 0.0022 0.0 9.0
22  1 1 2   0   0 -2.537315e+02 -1.936549e+03 -7.120326e+02  2.078844e+03 0.0 0.0 9.0
#pdf 2 21 5.423170e-01 2.663132e-01 5000.0 4.959588e-02 2.920057e-01
</event>
<event>
4 7 1.0 5000.0 7.905138e-03 7.739137e-02
 2 -1 0 0 101   0  0.000000e+00  0.000000e+00  2.260370e+03  2.260370e+03 0.0 0.0 9.0
21 -1 0 0 103 101  0.000000e+00  0.000000e+00 -2.516450e+03  2.516450e+03 0.0 0.0 9.0
22  1 1 2   0   0  1.136911e+03 -1.344055e+03  1.483332e+03  2.302026e+03 0.0 0.0 9.0
 2  1 1 2 103   0 -1.136911e+03  1.344055e+03 -1.739412e+03  2.474794e+03 0.0022 0.0 9.0
#pdf 2 21 3.477492e-01 3.871462e-01 5000.0 1.940848e-01 1.543610e-01
</event>
<event>
4 7 1.0 5000.0 7.905138e-03 7.739137e-02
 2 -1 0 0 101   0  0.000000e+00  0.000000e+00  2.508932e+03  2.508932e+03 0.0 0.0 9.0
21 -1 0 0 103 101  0.000000e+00  0.000000e+00 -2.487836e+03  2.487836e+03 0.0 0.0 9.0
22  1 1 2   0   0  7.110883e+02 -1.499781e+03 -1.856772e+03  2.490500e+03 0.0 0.0 9.0
 2  1 1 2 103   0 -7.110883e+02  1.499781e+03  1.877868e+03  2.506267e+03 0.0022 0.0 9.0
#pdf 2 21 3.859895e-01 3.827440e-01 5000.0 1.554496e-01 1.585295e-01
</event>
<event>
4 7 1.0 5000.0 7.905138e-03 7.739137e-02
21 -1 0 0 103 101  0.000000e+00  0.000000e+00  2.595611e+03  2.595611e+03 0.0 0.0 9.0
 2 -1 0 0 101   0  0.000000e+00  0.000000e+00 -2.373721e+03  2.373721e+03 0.0 0.0 9.0
22  1 1 2   0   0 -6.130238e+02 -2.224492e+03  1.026786e+03  2.525560e+03 0.0 0.0 9.0
 2  1 1 2 103   0  6.130238e+02  2.224492e+03 -8.048962e+02  2.443772e+03 0.0022 0.0 9.0
#pdf 21 2 3.993247e-01 3.651878e-01 5000.0 1.056917e-02 1.618292e-02
</event>
<event>
4 7 1.0 5000.0 7.905138e-03 7.739137e-02
21 -1 0 0 103 101  0.000000e+00  0.000000e+00  2.614705e+03  2.614705e+03 0.0 0.0 9.0
 2 -1 0 0 101   0  0.000000e+00  0.000000e+00 -2.356185e+03  2.356185e+03 0.0 0.0 9.0
22  1 1 2   0   0  2.066518e+02  2.460673e+03  3.808165e+02  2.498527e+03 0.0 0.0 9.0
 2  1 1 2 103   0 -2.066518e+02 -2.460673e+03 -1.222965e+02  2.472362e+03 0.0022 0.0 9.0
#pdf 21 2 4.022623e-01 3.624900e-01 5000.0 1.018551e-02 1.673042e-02
</event>
<event>
4 7 1.0 5000.0 7.905138e-03 7.739137e-02
 2 -1 0 0 101   0  0.000000e+00  0.000000e+00  1.658166e+03  1.658166e+03 0.0 0.0 9.0
21 -1 0 0 103 101  0.000000e+00  0.000000e+00 -3.571624e+03  3.571624e+03 0.0 0.0 9.0
22  1 1 2   0   0  1.970182e+03 -8.590485e+02  2.696932e+02  2.166175e+03 0.0 0.0 9.0
 2  1 1 2 103   0 -1.970182e+03  8.590485e+02 -2.183152e+03  3.063614e+03 0.0022 0.0 9.0
#pdf 2 21 2.551024e-01 5.494806e-01 5000.0 3.067828e-01 4.656037e-02
</event>
<event>
4 7 1.0 5000.0 7.905138e-03 7.739137e-02
21 -1 0 0 103 101  0.000000e+00  0.000000e+00  3.231472e+03  3.231472e+03 0.0 0.0 9.0
 2 -1 0 0 101   0  0.000000e+00  0.000000e+00 -2.011016e+03  2.011016e+03 0.0 0.0 9.0
 2  1 1 2 103   0  1.031201e+03  2.393705e+02 -1.774312e+03  2.066121e+03 0.0022 0.0 9.0
22  1 1 2   0   0 -1.031201e+03 -2.393705e+02  2.994768e+03  3.176367e+03 0.0 0.0 9.0
#pdf 21 2 4.971495e-01 3.093870e-01 5000.0 2.931594e-03 3.213805e-02
</event>
<event>
4 7 1.0 5000.0 7.905138e-03 7.739137e-02
21 -1 0 0 103 101  0.000000e+00  0.000000e+00  4.605958e+03  4.605958e+03 0.0 0.0 9.0
 2 -1 0 0 101   0  0.000000e+00  0.000000e+00 -1.212945e+03  1.212945e+03 0.0 0.0 9.0
 2  1 1 2 103   0  2.177270e+03 -1.327416e+02  5.759937e+02  2.256079e+03 0.0022 0.0 9.0
22  1 1 2   0   0 -2.177270e+03  1.327416e+02  2.817019e+03  3.562825e+03 0.0 0.0 9.0
#pdf 21 2 7.086090e-01 1.866070e-01 5000.0 9.089711e-05 1.501938e-01
</event>
<event>
4 7 1.0 5000.0 7.905138e-03 7.739137e-02
21 -1 0 0 103 101  0.000000e+00  0.000000e+00  2.477344e+03  2.477344e+03 0.0 0.0 9.0
 2 -1 0 0 101   0  0.000000e+00  0.000000e+00 -2.512046e+03  2.512046e+03 0.0 0.0 9.0
 2  1 1 2 103   0 -5.878333e+02 -2.236374e+03 -9.534763e+02  2.501206e+03 0.0022 0.0 9.0
22  1 1 2   0   0  5.878333e+02  2.236374e+03  9.187745e+02  2.488185e+03 0.0 0.0 9.0
#pdf 21 2 3.811299e-01 3.864687e-01 5000.0 1.328703e-02 1.242465e-02
</event>
<event>
4 7 1.0 5000.0 7.905138e-03 7.739137e-02
21 -1 0 0 103 101  0.000000e+00  0.000000e+00  1.635539e+03  1.635539e+03 0.0 0.0 9.0
 2 -1 0 0 101   0  0.000000e+00  0.000000e+00 -3.898903e+03  3.898903e+03 0.0 0.0 9.0
22  1 1 2   0   0 -1.630993e+03 -1.320986e+03 -2.670399e+03  3.396494e+03 0.0 0.0 9.0
 2  1 1 2 103   0  1.630993e+03  1.320986e+03  4.070347e+02  2.137948e+03 0.0022 0.0 9.0
#pdf 21 2 2.516214e-01 5.998312e-01 5000.0 6.541379e-02 6.435972e-04
</event>
<event>
4 7 1.0 5000.0 7.905138e-03 7.739137e-02
21 -1 0 0 103 101  0.000000e+00  0.000000e+00  4.722793e+03  4.722793e+03 0.0 0.0 9.0
 2 -1 0 0 101   0  0.000000e+00  0.000000e+00 -1.314331e+03  1.314331e+03 0.0 0.0 9.0
 2  1 1 2 103   0  1.930829e+03 -4.869679e+02  3.518381e+03  4.042801e+03 0.0022 0.0 9.0
22  1 1 2   0   0 -1.930829e+03  4.869679e+02 -1.099190e+02  1.994323e+03 0.0 0.0 9.0
#pdf 21 2 7.265835e-01 2.022048e-01 5000.0 6.226087e-05 1.222335e-01
</event>
<event>
4 7 1.0 5000.0 7.905138e-03 7.739137e-02
 2 -1 0 0 101   0  0.000000e+00  0.000000e+00  2.045476e+03  2.045476e+03 0.0 0.0 9.0
21 -1 0 0 103 101  0.000000e+00  0.000000e+00 -2.774289e+03  2.774289e+03 0.0 0.0 9.0
 2  1 1 2 103   0 -1.525486e+03  1.657472e+03  4.194748e+02  2.291349e+03 0.0022 0.0 9.0
22  1 1 2   0   0  1.525486e+03 -1.657472e+03 -1.148288e+03  2.528416e+03 0.0 0.0 9.0
#pdf 2 21 3.146886e-01 4.268136e-01 5000.0 2.314860e-01 1.198588e-01
</event>
<event>
4 7 1.0 5000.0 7.905138e-03 7.739137e-02
21 -1 0 0 103 101  0.000000e+00  0.000000e+00  2.198794e+03  2.198794e+03 0.0 0.0 9.0
 2 -1 0 0 101   0  0.000000e+00  0.000000e+00 -2.848000e+03  2.848000e+03 0.0 0.0 9.0
22  1 1 2   0   0 -7.059449e+02  2.114547e+02  2.086895e+03  2.213188e+03 0.0 0.0 9.0
 2  1 1 2 103   0  7.059449e+02 -2.114547e+02 -2.736101e+03  2.833606e+03 0.0022 0.0 9.0
#pdf 21 2 3.382760e-01 4.381538e-01 5000.0 2.253425e-02 6.442666e-03
</event>
<event>
4 7 1.0 5000.0 7.905138e-03 7.739137e-02
 2 -1 0 0 101   0  0.000000e+00  0.000000e+00  2.122170e+03  2.122170e+03 0.0 0.0 9.0
21 -1 0 0 103 101  0.000000e+00  0.000000e+00 -3.952491e+03  3.952491e+03 0.0 0.0 9.0
 2  1 1 2 103   0  2.386079e+03  1.585881e+03 -4.708781e+02  2.903467e+03 0.0022 0.0 9.0
22  1 1 2   0   0 -2.386079e+03 -1.585881e+03 -1.359442e+03  3.171195e+03 0.0 0.0 9.0
#pdf 2 21 3.264878e-01 6.080755e-01 5000.0 2.177364e-01 2.658099e-02
</event>
<event>
4 7 1.0 5000.0 7.905138e-03 7.739137e-02
 2 -1 0 0 101   0  0.000000e+00  0.000000e+00  2.070487e+03  2.070487e+03 0.0 0.0 9.0
21 -1 0 0 103 101  0.000000e+00  0.000000e+00 -2.987203e+03  2.987203e+03 0.0 0.0 9.0
 2  1 1 2 103   0  8.958327e+02 -9.417933e+02  1.697605e+03  2.138073e+03 0.0022 0.0 9.0
22  1 1 2   0   0 -8.958327e+02  9.417933e+02 -2.614321e+03  2.919617e+03 0.0 0.0 9.0
#pdf 2 21 3.185365e-01 4.595697e-01 5000.0 2.269591e-01 9.552938e-02
</event>
<event>
4 7 1.0 5000.0 7.905138e-03 7.739137e-02
21 -1 0 0 103 101  0.000000e+00  0.000000e+00  1.871572e+03  1.871572e+03 0.0 0.0 9.0
 2 -1 0 0 101   0  0.000000e+00  0.000000e+00 -3.311313e+03  3.311313e+03 0.0 0.0 9.0
 2  1 1 2 103   0  1.137063e+03  2.179377e+03 -3.103551e+02  2.477684e+03 0.0022 0.0 9.0
22  1 1 2   0   0 -1.137063e+03 -2.179377e+03 -1.129386e+03  2.705201e+03 0.0 0.0 9.0
#pdf 21 2 2.879341e-01 5.094328e-01 5000.0 4.177061e-02 2.472875e-03
</event>
<event>
4 7 1.0 5000.0 7.905138e-03 7.739137e-02
 2 -1 0 0 101   0  0.000000e+00  0.000000e+00  2.372615e+03  2.372615e+03 0.0 0.0 9.0
21 -1 0 0 103 101  0.000000e+00  0.000000e+00 -2.640043e+03  2.640043e+03 0.0 0.0 9.0
 2  1 1 2 103   0 -1.698704e+03 -6.571467e+02  1.585232e+03  2.414622e+03 0.0022 0.0 9.0
22  1 1 2   0   0  1.698704e+03  6.571467e+02 -1.852660e+03  2.598035e+03 0.0 0.0 9.0
#pdf 2 21 3.650177e-01 4.061604e-01 5000.0 1.759983e-01 1.371295e-01
</event>
<event>
4 7 1.0 5000.0 7.905138e-03 7.739137e-02
21 -1 0 0 103 101  0.000000e+00  0.000000e+00  2.451288e+03  2.451288e+03 0.0 0.0 9.0
 2 -1 0 0 101   0  0.000000e+00  0.000000e+00 -2.328557e+03  2.328557e+03 0.0 0.0 9.0
 2  1 1 2 103   0  4.815945e+02  2.314366e+03  4.075154e+02  2.398810e+03 0.0022 0.0 9.0
22  1 1 2   0   0 -4.815945e+02 -2.314366e+03 -2.847846e+02  2.381034e+03 0.0 0.0 9.0
#pdf 21 2 3.771212e-01 3.582395e-01 5000.0 1.396566e-02 1.762466e-02
</event>
<event>
4 7 1.0 5000.0 7.905138e-03 7.739137e-02
 2 -1 0 0 101   0  0.000000e+00  0.000000e+00  1.659216e+03  1.659216e+03 0.0 0.0 9.0
21 -1 0 0 103 101  0.000000e+00  0.000000e+00 -3.768576e+03  3.768576e+03 0.0 0.0 9.0
 2  1 1 2 103   0 -1.856641e+03 -8.100830e+02 -2.645881e+03  3.332272e+03 0.0022 0.0 9.0
22  1 1 2   0   0  1.856641e+03  8.100830e+02  5.365219e+02  2.095520e+03 0.0 0.0 9.0
#pdf 2 21 2.552640e-01 5.797809e-01 5000.0 3.065681e-01 3.520950e-02
</event>
<event>
4 7 1.0 5000.0 7.905138e-03 7.739137e-02
 2 -1 0 0 101   0  0.000000e+00  0.000000e+00  2.378042e+03  2.378042e+03 0.0 0.0 9.0
21 -1 0 0 103 101  0.000000e+00  0.000000e+00 -2.579692e+03  2.579692e+03 0.0 0.0 9.0
 2  1 1 2 103   0 -1.765452e+03 -1.327497e+02  1.632710e+03  2.408358e+03 0.0022 0.0 9.0
22  1 1 2   0   0  1.765452e+03  1.327497e+02 -1.834361e+03  2.549377e+03 0.0 0.0 9.0
#pdf 2 21 3.658526e-01 3.968758e-01 5000.0 1.751493e-01 1.453902e-01
</event>
<event>
4 7 1.0 5000.0 7.905138e-03 7.739137e-02
 2 -1 0 0 101   0  0.000000e+00  0.000000e+00  1.766270e+03  1.766270e+03 0.0 0.0 9.0
21 -1 0 0 103 101  0.000000e+00  0.000000e+00 -3.492736e+03  3.492736e+03 0.0 0.0 9.0
22  1 1 2   0   0 -1.163387e+03 -2.797812e+02  1.441024e+03  1.873045e+03 0.0 0.0 9.0
 2  1 1 2 103   0  1.163387e+03  2.797812e+02 -3.167490e+03  3.385962e+03 0.0022 0.0 9.0
#pdf 2 21 2.717339e-01 5.373440e-01 5000.0 2.849310e-01 5.177853e-02
</event>
<event>
4 7 1.0 5000.0 7.905138e-03 7.739137e-02
21 -1 0 0 103 101  0.000000e+00  0.000000e+00  1.179893e+03  1.179893e+03 0.0 0.0 9.0
 2 -1 0 0 101   0  0.000000e+00  0.000000e+00 -5.279894e+03  5.279894e+03 0.0 0.0 9.0
22  1 1 2   0   0 -2.154069e+03  1.104188e+03 -2.837642e+03  3.729806e+03 0.0 0.0 9.0
 2  1 1 2 103   0  2.154069e+03 -1.104188e+03 -1.262359e+03  2.729981e+03 0.0022 0.0 9.0
#pdf 21 2 1.815220e-01 8.122914e-01 5000.0 1.607965e-01 7.121333e-06
</event>
<event>
4 7 1.0 5000.0 7.905138e-03 7.739137e-02
21 -1 0 0 103 101  0.000000e+00  0.000000e+00  2.142858e+03  2.142858e+03 0.0 0.0 9.0
 2 -1 0 0 101   0  0.000000e+00  0.000000e+00 -2.897088e+03  2.897088e+03 0.0 0.0 9.0
 2  1 1 2 103   0 -1.382168e+03  4.575419e+02 -2.422102e+03  2.826006e+03 0.0022 0.0 9.0
22  1 1 2   0   0  1.382168e+03 -4.575419e+02  1.667872e+03  2.213940e+03 0.0 0.0 9.0
#pdf 21 2 3.296704e-01 4.457059e-01 5000.0 2.504712e-02 5.832195e-03
</event>
<event>
4 7 1.0 5000.0 7.905138e-03 7.739137e-02
21 -1 0 0 103 101  0.000000e+00  0.000000e+00  1.703381e+03  1.703381e+03 0.0 0.0 9.0
 2 -1 0 0 101   0  0.000000e+00  0.000000e+00 -3.411279e+03  3.411279e+03 0.0 0.0 9.0
22  1 1 2   0   0 -3.895361e+02  1.823296e+03 -2.474919e+03  3.098608e+03 0.0 0.0 9.0
 2  1 1 2 103   0  3.895361e+02 -1.823296e+03  7.670212e+02  2.016053e+03 0.0022 0.0 9.0
#pdf 21 2 2.620587e-01 5.248121e-01 5000.0 5.741214e-02 1.991533e-03
</event>
<event>
4 7 1.0 5000.0 7.905138e-03 7.739137e-02
 2 -1 0 0 101   0  0.000000e+00  0.000000e+00  1.327989e+03  1.327989e+03 0.0 0.0 9.0
21 -1 0 0 103 101  0.000000e+00  0.000000e+00 -4.778849e+03  4.778849e+03 0.0 0.0 9.0
 2  1 1 2 103   0  6.754480e+02  8.969609e+02 -4.458772e+03  4.597980e+03 0.0022 0.0 9.0
22  1 1 2   0   0 -6.754480e+02 -8.969609e+02  1.007912e+03  1.508859e+03 0.0 0.0 9.0
#pdf 2 21 2.043061e-01 7.352076e-01 5000.0 3.761018e-01 5.370479e-03
</event>
<event>
4 7 1.0 5000.0 7.905138e-03 7.739137e-02
 2 -1 0 0 101   0  0.000000e+00  0.000000e+00  1.869150e+03  1.869150e+03 0.0 0.0 9.0
21 -1 0 0 103 101  0.000000e+00  0.000000e+00 -3.357438e+03  3.357438e+03 0.0 0.0 9.0
 2  1 1 2 103   0  7.778901e+01 -2.080007e+03 -2.198286e+03  3.027366e+03 0.0022 0.0 9.0
22  1 1 2   0   0 -7.778901e+01  2.080007e+03  7.099977e+02  2.199222e+03 0.0 0.0 9.0
#pdf 2 21 2.875615e-01 5.165289e-01 5000.0 2.646698e-01 6.168480e-02
</event>
<event>
4 7 1.0 5000.0 7.905138e-03 7.739137e-02
 2 -1 0 0 101   0  0.000000e+00  0.000000e+00  1.869822e+03  1.869822e+03 0.0 0.0 9.0
21 -1 0 0 103 101  0.000000e+00  0.000000e+00 -3.351747e+03  3.351747e+03 0.0 0.0 9.0
22  1 1 2   0   0 -1.750889e+03  9.565518e+02 -2.317946e+03  3.058345e+03 0.0 0.0 9.0
 2  1 1 2 103   0  1.750889e+03 -9.565518e+02  8.360209e+02  2.163223e+03 0.0022 0.0 9.0
#pdf 2 21 2.876649e-01 5.156533e-01 5000.0 2.645392e-01 6.212882e-02
</event>
<event>
4 7 1.0 5000.0 7.905138e-03 7.739137e-02
21 -1 0 0 103 101  0.000000e+00  0.000000e+00  1.918334e+03  1.918334e+03 0.0 0.0 9.0
 2 -1 0 0 101   0  0.000000e+00  0.000000e+00 -3.069391e+03  3.069391e+03 0.0 0.0 9.0
22  1 1 2   0   0  2.242477e+03  4.002025e+02 -1.434942e+03  2.692197e+03 0.0 0.0 9.0
 2  1 1 2 103   0 -2.242477e+03 -4.002025e+02  2.838855e+02  2.295529e+03 0.0022 0.0 9.0
#pdf 21 2 2.951284e-01 4.722141e-01 5000.0 3.827258e-02 4.111438e-03
</event>
<event>
4 7 1.0 5000.0 7.905138e-03 7.739137e-02
 2 -1 0 0 101   0  0.000000e+00  0.000000e+00  4.139029e+03  4.139029e+03 0.0 0.0 9.0
21 -1 0 0 103 101  0.000000e+00  0.000000e+00 -1.548690e+03  1.548690e+03 0.0 0.0 9.0
22  1 1 2   0   0  2.286482e+03  1.016510e+03  1.728428e+03  3.041177e+03 0.0 0.0 9.0
 2  1 1 2 103   0 -2.286482e+03 -1.016510e+03  8.619111e+02  2.646542e+03 0.0022 0.0 9.0
#pdf 2 21 6.367737e-01 2.382600e-01 5000.0 1.952526e-02 3.294290e-01
</event>
<event>
4 7 1.0 5000.0 7.905138e-03 7.739137e-02
 2 -1 0 0 101   0  0.000000e+00  0.000000e+00  2.908987e+03  2.908987e+03 0.0 0.0 9.0
21 -1 0 0 103 101  0.000000e+00  0.000000e+00 -2.134342e+03  2.134342e+03 0.0 0.0 9.0
 2  1 1 2 103   0  7.070454e+02 -1.411839e+03  2.338052e+03  2.821292e+03 0.0022 0.0 9.0
22  1 1 2   0   0 -7.070454e+02  1.411839e+03 -1.563407e+03  2.222036e+03 0.0 0.0 9.0
#pdf 2 21 4.475364e-01 3.283603e-01 5000.0 1.040335e-01 2.155922e-01
</event>
<event>
4 7 1.0 5000.0 7.905138e-03 7.739137e-02
21 -1 0 0 103 101  0.000000e+00  0.000000e+00  3.696114e+03  3.696114e+03 0.0 0.0 9.0
 2 -1 0 0 101   0  0.000000e+00  0.000000e+00 -1.607070e+03  1.607070e+03 0.0 0.0 9.0
 2  1 1 2 103   0 -6.152927e+02  6.774384e+02 -1.413038e+03  1.683504e+03 0.0022 0.0 9.0
22  1 1 2   0   0  6.152927e+02 -6.774384e+02  3.502082e+03  3.619680e+03 0.0 0.0 9.0
#pdf 21 2 5.686329e-01 2.472415e-01 5000.0 1.046651e-03 6.902277e-02
</event>
<event>
4 7 1.0 5000.0 7.905138e-03 7.739137e-02
21 -1 0 0 103 101  0.000000e+00  0.000000e+00  2.367641e+03  2.367641e+03 0.0 0.0 9.0
 2 -1 0 0 101   0  0.000000e+00  0.000000e+00 -2.600303e+03  2.600303e+03 0.0 0.0 9.0
 2  1 1 2 103   0 -1.337858e+03  6.934806e+02  1.857079e+03  2.391552e+03 0.0022 0.0 9.0
22  1 1 2   0   0  1.337858e+03 -6.934806e+02 -2.089740e+03  2.576392e+03 0.0 0.0 9.0
#pdf 21 2 3.642525e-01 4.000466e-01 5000.0 1.637143e-02 1.047365e-02
</event>
<event>
4 7 1.0 5000.0 7.905138e-03 7.739137e-02
21 -1 0 0 103 101  0.000000e+00  0.000000e+00  1.046868e+03  1.046868e+03 0.0 0.0 9.0
 2 -1 0 0 101   0  0.000000e+00  0.000000e+00 -5.876472e+03  5.876472e+03 0.0 0.0 9.0
22  1 1 2   0   0  3.511119e+02 -1.036287e+03  6.918375e+02  1.294531e+03 0.0 0.0 9.0
 2  1 1 2 103   0 -3.511119e+02  1.036287e+03 -5.521442e+03  5.628809e+03 0.0022 0.0 9.0
#pdf 21 2 1.610566e-01 9.040726e-01 5000.0 2.124313e-01 1.837146e-07
</event>
<event>
4 7 1.0 5000.0 7.905138e-03 7.739137e-02
21 -1 0 0 103 101  0.000000e+00  0.000000e+00  2.028225e+03  2.028225e+03 0.0 0.0 9.0
 2 -1 0 0 101   0  0.000000e+00  0.000000e+00 -3.060309e+03  3.060309e+03 0.0 0.0 9.0
 2  1 1 2 103   0  1.581449e+03 -1.914003e+03 -3.052542e+02  2.501514e+03 0.0022 0.0 9.0
22  1 1 2   0   0 -1.581449e+03  1.914003e+03 -7.268305e+02  2.587020e+03 0.0 0.0 9.0
#pdf 21 2 3.120346e-01 4.708168e-01 5000.0 3.110294e-02 4.188906e-03
</event>
<event>
4 7 1.0 5000.0 7.905138e-03 7.739137e-02
21 -1 0 0 103 101  0.000000e+00  0.000000e+00  2.865109e+03  2.865109e+03 0.0 0.0 9.0
 2 -1 0 0 101   0  0.000000e+00  0.000000e+00 -2.128577e+03  2.128577e+03 0.0 0.0 9.0
 2  1 1 2 103   0 -6.203883e+02 -2.241827e+03  1.206856e+03  2.620529e+03 0.0022 0.0 9.0
22  1 1 2   0   0  6.203883e+02  2.241827e+03 -4.703233e+02  2.373157e+03 0.0 0.0 9.0
#pdf 21 2 4.407860e-01 3.274733e-01 5000.0 6.226448e-03 2.572958e-02
</event>
<event>
4 7 1.0 5000.0 7.905138e-03 7.739137e-02
21 -1 0 0 103 101  0.000000e+00  0.000000e+00  3.372424e+03  3.372424e+03 0.0 0.0 9.0
 2 -1 0 0 101   0  0.000000e+00  0.000000e+00 -1.833335e+03  1.833335e+03 0.0 0.0 9.0
 2  1 1 2 103   0 -1.934203e+03  1.437578e+03  1.285070e+02  2.413356e+03 0.0022 0.0 9.0
22  1 1 2   0   0  1.934203e+03 -1.437578e+03  1.410582e+03  2.792403e+03 0.0 0.0 9.0
#pdf 21 2 5.188345e-01 2.820516e-01 5000.0 2.167088e-03 4.487495e-02
</event>
<event>
4 7 1.0 5000.0 7.905138e-03 7.739137e-02
21 -1 0 0 103 101  0.000000e+00  0.000000e+00  5.148585e+03  5.148585e+03 0.0 0.0 9.0
 2 -1 0 0 101   0  0.000000e+00  0.000000e+00 -1.160421e+03  1.160421e+03 0.0 0.0 9.0
22  1 1 2   0   0  1.605983e+02 -8.095579e+02 -9.751522e+02  1.277536e+03 0.0 0.0 9.0
 2  1 1 2 103   0 -1.605983e+02  8.095579e+02  4.963317e+03  5.031470e+03 0.0022 0.0 9.0
#pdf 21 2 7.920901e-01 1.785262e-01 5000.0 1.272653e-05 1.673722e-01
</event>
<event>
4 7 1.0 5000.0 7.905138e-03 7.739137e-02
21 -1 0 0 103 101  0.000000e+00  0.000000e+00  2.634546e+03  2.634546e+03 0.0 0.0 9.0
 2 -1 0 0 101   0  0.000000e+00  0.000000e+00 -2.376813e+03  2.376813e+03 0.0 0.0 9.0
22  1 1 2   0   0 -1.293756e+03 -1.395000e+03 -1.498708e+03  2.421973e+03 0.0 0.0 9.0
 2  1 1 2 103   0  1.293756e+03  1.395000e+03  1.756442e+03  2.589386e+03 0.0022 0.0 9.0
#pdf 21 2 4.053148e-01 3.656635e-01 5000.0 9.800350e-03 1.608747e-02
</event>
<event>
4 7 1.0 5000.0 7.905138e-03 7.739137e-02
 2 -1 0 0 101   0  0.000000e+00  0.000000e+00  1.938230e+03  1.938230e+03 0.0 0.0 9.0
21 -1 0 0 103 101  0.000000e+00  0.000000e+00 -3.231797e+03  3.231797e+03 0.0 0.0 9.0
 2  1 1 2 103   0 -1.022187e+03  2.275589e+03 -8.553972e+02  2.637210e+03 0.0022 0.0 9.0
22  1 1 2   0   0  1.022187e+03 -2.275589e+03 -4.381700e+02  2.532818e+03 0.0 0.0 9.0
#pdf 2 21 2.981893e-01 4.971996e-01 5000.0 2.514183e-01 7.202265e-02
</event>
<event>
4 7 1.0 5000.0 7.905138e-03 7.739137e-02
 2 -1 0 0 101   0  0.000000e+00  0.000000e+00  2.284252e+03  2.284252e+03 0.0 0.0 9.0
21 -1 0 0 103 101  0.000000e+00  0.000000e+00 -2.540523e+03  2.540523e+03 0.0 0.0 9.0
22  1 1 2   0   0  3.801895e+02 -6.352859e+02 -2.423768e+03  2.534322e+03 0.0 0.0 9.0
 2  1 1 2 103   0 -3.801895e+02  6.352859e+02  2.167497e+03  2.290453e+03 0.0022 0.0 9.0
#pdf 2 21 3.514233e-01 3.908497e-01 5000.0 1.901495e-01 1.509089e-01
</event>
<event>
4 7 1.0 5000.0 7.905138e-03 7.739137e-02
21 -1 0 0 103 101  0.000000e+00  0.000000e+00  3.576766e+03  3.576766e+03 0.0 0.0 9.0
 2 -1 0 0 101   0  0.000000e+00  0.000000e+00 -1.696306e+03  1.696306e+03 0.0 0.0 9.0
 2  1 1 2 103   0  2.339933e+03  7.346977e+02  6.956246e+02  2.549306e+03 0.0022 0.0 9.0
22  1 1 2   0   0 -2.339933e+03 -7.346977e+02  1.184835e+03  2.723766e+03 0.0 0.0 9.0
#pdf 21 2 5.502717e-01 2.609702e-01 5000.0 1.376065e-03 5.819731e-02
</event>
<event>
4 7 1.0 5000.0 7.905138e-03 7.739137e-02
 2 -1 0 0 101   0  0.000000e+00  0.000000e+00  1.532392e+03  1.532392e+03 0.0 0.0 9.0
21 -1 0 0 103 101  0.000000e+00  0.000000e+00 -4.238535e+03  4.238535e+03 0.0 0.0 9.0
 2  1 1 2 103   0  9.369189e+02  1.828746e+03  3.538730e+02  2.085031e+03 0.0022 0.0 9.0
22  1 1 2   0   0 -9.369189e+02 -1.828746e+03 -3.060017e+03  3.685896e+03 0.0 0.0 9.0
#pdf 2 21 2.357526e-01 6.520824e-01 5000.0 3.328483e-01 1.639300e-02
</event>
<event>
4 7 1.0 5000.0 7.905138e-03 7.739137e-02
21 -1 0 0 103 101  0.000000e+00  0.000000e+00  2.426378e+03  2.426378e+03 0.0 0.0 9.0
 2 -1 0 0 101   0  0.000000e+00  0.000000e+00 -2.568031e+03  2.568031e+03 0.0 0.0 9.0
22  1 1 2   0   0 -1.902386e+03 -1.310873e+03  8.748326e+02  2.470383e+03 0.0 0.0 9.0
 2  1 1 2 103   0  1.902386e+03  1.310873e+03 -1.016486e+03  2.524025e+03 0.0022 0.0 9.0
#pdf 21 2 3.732889e-01 3.950817e-01 5000.0 1.463586e-02 1.114793e-02
</event>
<event>
4 7 1.0 5000.0 7.905138e-03 7.739137e-02
 2 -1 0 0 101   0  0.000000e+00  0.000000e+00  1.893533e+03  1.893533e+03 0.0 0.0 9.0
21 -1 0 0 103 101  0.000000e+00  0.000000e+00 -3.422754e+03  3.422754e+03 0.0 0.0 9.0
22  1 1 2   0   0 -2.447974e+03  5.209232e+01 -3.685244e+01  2.448805e+03 0.0 0.0 9.0
 2  1 1 2 103   0  2.447974e+03 -5.209232e+01 -1.492368e+03  2.867482e+03 0.0022 0.0 9.0
#pdf 2 21 2.913128e-01 5.265775e-01 5000.0 2.599507e-01 5.675567e-02
</event>
<event>
4 7 1.0 5000.0 7.905138e-03 7.739137e-02
 2 -1 0 0 101   0  0.000000e+00  0.000000e+00  2.762278e+03  2.762278e+03 0.0 0.0 9.0
21 -1 0 0 103 101  0.000000e+00  0.000000e+00 -2.302546e+03  2.302546e+03 0.0 0.0 9.0
22  1 1 2   0   0  1.195044e+02  1.493159e+03  2.267185e+03  2.717339e+03 0.0 0.0 9.0
 2  1 1 2 103   0 -1.195044e+02 -1.493159e+03 -1.807453e+03  2.347486e+03 0.0022 0.0 9.0
#pdf 2 21 4.249659e-01 3.542379e-01 5000.0 1.213417e-01 1.871673e-01
</event>
<event>
4 7 1.0 5000.0 7.905138e-03 7.739137e-02
21 -1 0 0 103 101  0.000000e+00  0.000000e+00  4.531998e+03  4.531998e+03 0.0 0.0 9.0
 2 -1 0 0 101   0  0.000000e+00  0.000000e+00 -1.558093e+03  1.558093e+03 0.0 0.0 9.0
 2  1 1 2 103   0 -1.547207e+03  2.082468e+03  8.279243e+02  2.723230e+03 0.0022 0.0 9.0
22  1 1 2   0   0  1.547207e+03 -2.082468e+03  2.145981e+03  3.366861e+03 0.0 0.0 9.0
#pdf 21 2 6.972305e-01 2.397066e-01 5000.0 1.144057e-04 7.589543e-02
</event>
<event>
4 7 1.0 5000.0 7.905138e-03 7.739137e-02
21 -1 0 0 103 101  0.000000e+00  0.000000e+00  2.275918e+03  2.275918e+03 0.0 0.0 9.0
 2 -1 0 0 101   0  0.000000e+00  0.000000e+00 -2.362394e+03  2.362394e+03 0.0 0.0 9.0
22  1 1 2   0   0  9.694276e+02  1.521083e+03 -1.500587e+03  2.346326e+03 0.0 0.0 9.0
 2  1 1 2 103   0 -9.694276e+02 -1.521083e+03  1.414112e+03  2.291985e+03 0.0022 0.0 9.0
#pdf 21 2 3.501412e-01 3.634452e-01 5000.0 1.948580e-02 1.653520e-02
</event>
<event>
4 7 1.0 5000.0 7.905138e-03 7.739137e-02
21 -1 0 0 103 101  0.000000e+00  0.000000e+00  4.482749e+03  4.482749e+03 0.0 0.0 9.0
 2 -1 0 0 101   0  0.000000e+00  0.000000e+00 -1.622563e+03  1.622563e+03 0.0 0.0 9.0
22  1 1 2   0   0 -1.133815e+03  4.012944e+02  4.162379e+03  4.332664e+03 0.0 0.0 9.0
 2  1 1 2 103   0  1.133815e+03 -4.012944e+02 -1.302194e+03  1.772648e+03 0.0022 0.0 9.0
#pdf 21 2 6.896537e-01 2.496251e-01 5000.0 1.328863e-04 6.704478e-02
</event>
<event>
4 7 1.0 5000.0 7.905138e-03 7.739137e-02
21 -1 0 0 103 101  0.000000e+00  0.000000e+00  1.251244e+03  1.251244e+03 0.0 0.0 9.0
 2 -1 0 0 101   0  0.000000e+00  0.000000e+00 -3.815583e+03  3.815583e+03 0.0 0.0 9.0
 2  1 1 2 103   0  7.617177e+02  7.360458e+02  9.336514e+02  1.411978e+03 0.0022 0.0 9.0
22  1 1 2   0   0 -7.617177e+02 -7.360458e+02 -3.497991e+03  3.654849e+03 0.0 0.0 9.0
#pdf 21 2 1.924990e-01 5.870128e-01 5000.0 1.387524e-01 7.882401e-04
</event>
<event>
4 7 1.0 5000.0 7.905138e-03 7.739137e-02
 2 -1 0 0 101   0  0.000000e+00  0.000000e+00  1.297324e+03  1.297324e+03 0.0 0.0 9.0
21 -1 0 0 103 101  0.000000e+00  0.000000e+00 -3.910336e+03  3.910336e+03 0.0 0.0 9.0
 2  1 1 2 103   0  1.624313e+03  1.546193e+03 -1.548641e+03  2.725324e+03 0.0022 0.0 9.0
22  1 1 2   0   0 -1.624313e+03 -1.546193e+03 -1.064371e+03  2.482335e+03 0.0 0.0 9.0
#pdf 2 21 1.995883e-01 6.015902e-01 5000.0 3.825961e-01 2.840294e-02
</event>
<event>
4 7 1.0 5000.0 7.905138e-03 7.739137e-02
 2 -1 0 0 101   0  0.000000e+00  0.000000e+00  2.077114e+03  2.077114e+03 0.0 0.0 9.0
21 -1 0 0 103 101  0.000000e+00  0.000000e+00 -2.590997e+03  2.590997e+03 0.0 0.0 9.0
 2  1 1 2 103   0  2.053576e+03 -1.049929e+03 -5.080047e+02  2.361693e+03 0.0022 0.0 9.0
22  1 1 2   0   0 -2.053576e+03  1.049929e+03 -5.877829e+00  2.306417e+03 0.0 0.0 9.0
#pdf 2 21 3.195560e-01 3.986148e-01 5000.0 2.257667e-01 1.438197e-01
</event>
<event>
4 7 1.0 5000.0 7.905138e-03 7.739137e-02
 2 -1 0 0 101   0  0.000000e+00  0.000000e+00  3.861202e+03  3.861202e+03 0.0 0.0 9.0
21 -1 0 0 103 101  0.000000e+00  0.000000e+00 -1.697848e+03  1.697848e+03 0.0 0.0 9.0
 2  1 1 2 103   0 -2.136626e+02  1.911731e+03  2.916064e+03  3.493393e+03 0.0022 0.0 9.0
22  1 1 2   0   0  2.136626e+02 -1.911731e+03 -7.527096e+02  2.065657e+03 0.0 0.0 9.0
#pdf 2 21 5.940311e-01 2.612073e-01 5000.0 3.063905e-02 2.987128e-01
</event>
<event>
4 7 1.0 5000.0 7.905138e-03 7.739137e-02
21 -1 0 0 103 101  0.000000e+00  0.000000e+00  3.205160e+03  3.205160e+03 0.0 0.0 9.0
 2 -1 0 0 101   0  0.000000e+00  0.000000e+00 -1.938705e+03  1.938705e+03 0.0 0.0 9.0
22  1 1 2   0   0  4.654023e+02 -2.433733e+03  3.521725e+02  2.502735e+03 0.0 0.0 9.0
 2  1 1 2 103   0 -4.654023e+02  2.433733e+03  9.142827e+02  2.641131e+03 0.0022 0.0 9.0
#pdf 21 2 4.931016e-01 2.982624e-01 5000.0 3.098762e-03 3.681103e-02
</event>
<event>
4 7 1.0 5000.0 7.905138e-03 7.739137e-02
21 -1 0 0 103 101  0.000000e+00  0.000000e+00  3.363025e+03  3.363025e+03 0.0 0.0 9.0
 2 -1 0 0 101   0  0.000000e+00  0.000000e+00 -1.944654e+03  1.944654e+03 0.0 0.0 9.0
 2  1 1 2 103   0 -5.618305e+02 -6.117060e+02 -1.800790e+03  1.983099e+03 0.0022 0.0 9.0
22  1 1 2   0   0  5.618305e+02  6.117060e+02  3.219161e+03  3.324580e+03 0.0 0.0 9.0
#pdf 21 2 5.173884e-01 2.991776e-01 5000.0 2.211965e-03 3.638838e-02
</event>
<event>
4 7 1.0 5000.0 7.905138e-03 7.739137e-02
 2 -1 0 0 101   0  0.000000e+00  0.000000e+00  1.593881e+03  1.593881e+03 0.0 0.0 9.0
21 -1 0 0 103 101  0.000000e+00  0.000000e+00 -4.022723e+03  4.022723e+03 0.0 0.0 9.0
22  1 1 2   0   0  2.041036e+03 -1.466580e+03 -1.556358e+03  2.956169e+03 0.0 0.0 9.0
 2  1 1 2 103   0 -2.041036e+03  1.466580e+03 -8.724835e+02  2.660435e+03 0.0022 0.0 9.0
#pdf 2 21 2.452125e-01 6.188804e-01 5000.0 3.200684e-01 2.373545e-02
</event>
<event>
4 7 1.0 5000.0 7.905138e-03 7.739137e-02
21 -1 0 0 103 101  0.000000e+00  0.000000e+00  2.310639e+03  2.310639e+03 0.0 0.0 9.0
 2 -1 0 0 101   0  0.000000e+00  0.000000e+00 -2.751301e+03  2.751301e+03 0.0 0.0 9.0
22  1 1 2   0   0  1.945491e+02  2.192005e+03 -1.455683e+03  2.638513e+03 0.0 0.0 9.0
 2  1 1 2 103   0 -1.945491e+02 -2.192005e+03  1.015021e+03  2.423428e+03 0.0022 0.0 9.0
#pdf 21 2 3.554830e-01 4.232771e-01 5000.0 1.823449e-02 7.796753e-03
</event>
<event>
4 7 1.0 5000.0 7.905138e-03 7.739137e-02
21 -1 0 0 103 101  0.000000e+00  0.000000e+00  3.234080e+03  3.234080e+03 0.0 0.0 9.0
 2 -1 0 0 101   0  0.000000e+00  0.000000e+00 -1.579344e+03  1.579344e+03 0.0 0.0 9.0
 2  1 1 2 103   0 -1.542568e+03  6.654399e+02  2.437239e+03  2.960146e+03 0.0022 0.0 9.0
22  1 1 2   0   0  1.542568e+03 -6.654399e+02 -7.825029e+02  1.853278e+03 0.0 0.0 9.0
#pdf 21 2 4.975507e-01 2.429759e-01 5000.0 2.915442e-03 7.282839e-02
</event>
<event>
4 7 1.0 5000.0 7.905138e-03 7.739137e-02
21 -1 0 0 103 101  0.000000e+00  0.000000e+00  1.735917e+03  1.735917e+03 0.0 0.0 9.0
 2 -1 0 0 101   0  0.000000e+00  0.000000e+00 -3.633925e+03  3.633925e+03 0.0 0.0 9.0
22  1 1 2   0   0  7.823098e+02 -2.028519e+03  3.952625e+02  2.209781e+03 0.0 0.0 9.0
 2  1 1 2 103   0 -7.823098e+02  2.028519e+03 -2.293270e+03  3.160061e+03 0.0022 0.0 9.0
#pdf 21 2 2.670642e-01 5.590654e-01 5000.0 5.396194e-02 1.210017e-03
</event>
<event>
4 7 1.0 5000.0 7.905138e-03 7.739137e-02
 2 -1 0 0 101   0  0.000000e+00  0.000000e+00  4.061911e+03  4.061911e+03 0.0 0.0 9.0
21 -1 0 0 103 101  0.000000e+00  0.000000e+00 -1.505852e+03  1.505852e+03 0.0 0.0 9.0
22  1 1 2   0   0 -2.159407e+03  8.655595e+01  2.631642e+03  3.405301e+03 0.0 0.0 9.0
 2  1 1 2 103   0  2.159407e+03 -8.655595e+01 -7.558388e+01  2.162462e+03 0.0022 0.0 9.0
#pdf 2 21 6.249094e-01 2.316696e-01 5000.0 2.224844e-02 3.384401e-01
</event>
<event>
4 7 1.0 5000.0 7.905138e-03 7.739137e-02
21 -1 0 0 103 101  0.000000e+00  0.000000e+00  1.906141e+03  1.906141e+03 0.0 0.0 9.0
 2 -1 0 0 101   0  0.000000e+00  0.000000e+00 -3.188555e+03  3.188555e+03 0.0 0.0 9.0
22  1 1 2   0   0 -1.215872e+03 -4.016079e+01  1.574399e+03  1.989646e+03 0.0 0.0 9.0
 2  1 1 2 103   0  1.215872e+03  4.016079e+01 -2.856813e+03  3.105050e+03 0.0022 0.0 9.0
#pdf 21 2 2.932525e-01 4.905469e-01 5000.0 3.916183e-02 3.208495e-03
</event>
<event>
4 7 1.0 5000.0 7.905138e-03 7.739137e-02
21 -1 0 0 103 101  0.000000e+00  0.000000e+00  1.315063e+03  1.315063e+03 0.0 0.0 9.0
 2 -1 0 0 101   0  0.000000e+00  0.000000e+00 -4.688064e+03  4.688064e+03 0.0 0.0 9.0
 2  1 1 2 103   0 -4.194295e+02 -2.259634e+03 -5.504039e+02  2.363221e+03 0.0022 0.0 9.0
22  1 1 2   0   0  4.194295e+02  2.259634e+03 -2.822596e+03  3.639906e+03 0.0 0.0 9.0
#pdf 21 2 2.023174e-01 7.212406e-01 5000.0 1.220526e-01 6.979703e-05
</event>
<event>
4 7 1.0 5000.0 7.905138e-03 7.739137e-02
 2 -1 0 0 101   0  0.000000e+00  0.000000e+00  2.545763e+03  2.545763e+03 0.0 0.0 9.0
21 -1 0 0 103 101  0.000000e+00  0.000000e+00 -2.445950e+03  2.445950e+03 0.0 0.0 9.0
22  1 1 2   0   0 -1.270841e+03  1.842501e+03  1.153288e+03  2.517920e+03 0.0 0.0 9.0
 2  1 1 2 103   0  1.270841e+03 -1.842501e+03 -1.053475e+03  2.473794e+03 0.0022 0.0 9.0
#pdf 2 21 3.916559e-01 3.763000e-01 5000.0 1.501640e-01 1.647509e-01
</event>
<event>
4 7 1.0 5000.0 7.905138e-03 7.739137e-02
21 -1 0 0 103 101  0.000000e+00  0.000000e+00  3.034475e+03  3.034475e+03 0.0 0.0 9.0
 2 -1 0 0 101   0  0.000000e+00  0.000000e+00 -1.949754e+03  1.949754e+03 0.0 0.0 9.0
 2  1 1 2 103   0 -3.145414e+02  2.295137e+03  1.302115e+03  2.657460e+03 0.0022 0.0 9.0
22  1 1 2   0   0  3.145414e+02 -2.295137e+03 -2.173941e+02  2.326769e+03 0.0 0.0 9.0
#pdf 21 2 4.668423e-01 2.999621e-01 5000.0 4.416376e-03 3.602781e-02
</event>
<event>
4 7 1.0 5000.0 7.905138e-03 7.739137e-02
 2 -1 0 0 101   0  0.000000e+00  0.000000e+00  3.049057e+03  3.049057e+03 0.0 0.0 9.0
21 -1 0 0 103 101  0.000000e+00  0.000000e+00 -1.980392e+03  1.980392e+03 0.0 0.0 9.0
22  1 1 2   0   0  1.535355e+03 -5.935722e+02  2.401436e+03  2.911449e+03 0.0 0.0 9.0
 2  1 1 2 103   0 -1.535355e+03  5.935722e+02 -1.332771e+03  2.118000e+03 0.0022 0.0 9.0
#pdf 2 21 4.690857e-01 3.046757e-01 5000.0 8.915332e-02 2.434855e-01
</event>
<event>
4 7 1.0 5000.0 7.905138e-03 7.739137e-02
21 -1 0 0 103 101  0.000000e+00  0.000000e+00  2.254602e+03  2.254602e+03 0.0 0.0 9.0
 2 -1 0 0 101   0  0.000000e+00  0.000000e+00 -2.720585e+03  2.720585e+03 0.0 0.0 9.0
22  1 1 2   0   0 -2.311306e+03 -4.009337e+02  5.648430e+02  2.412867e+03 0.0 0.0 9.0
 2  1 1 2 103   0  2.311306e+03  4.009337e+02 -1.030826e+03  2.562320e+03 0.0022 0.0 9.0
#pdf 21 2 3.468618e-01 4.185516e-01 5000.0 2.028682e-02 8.281792e-03
</event>
<event>
4 7 1.0 5000.0 7.905138e-03 7.739137e-02
 2 -1 0 0 101   0  0.000000e+00  0.000000e+00  1.718377e+03  1.718377e+03 0.0 0.0 9.0
21 -1 0 0 103 101  0.000000e+00  0.000000e+00 -3.410289e+03  3.410289e+03 0.0 0.0 9.0
22  1 1 2   0   0 -6.471010e+02  9.508473e+02  1.410458e+03  1.819957e+03 0.0 0.0 9.0
 2  1 1 2 103   0  6.471010e+02 -9.508473e+02 -3.102371e+03  3.308709e+03 0.0022 0.0 9.0
#pdf 2 21 2.643656e-01 5.246599e-01 5000.0 2.945601e-01 5.767341e-02
</event>
<event>
4 7 1.0 5000.0 7.905138e-03 7.739137e-02
21 -1 0 0 103 101  0.000000e+00  0.000000e+00  2.481858e+03  2.481858e+03 0.0 0.0 9.0
 2 -1 0 0 101   0  0.000000e+00  0.000000e+00 -2.541066e+03  2.541066e+03 0.0 0.0 9.0
 2  1 1 2 103   0 -1.393020e+02 -1.536866e+03 -2.010955e+03  2.534817e+03 0.0022 0.0 9.0
22  1 1 2   0   0  1.393020e+02  1.536866e+03  1.951746e+03  2.488107e+03 0.0 0.0 9.0
#pdf 21 2 3.818243e-01 3.909332e-01 5000.0 1.317206e-02 1.174470e-02
</event>
<event>
4 7 1.0 5000.0 7.905138e-03 7.739137e-02
 2 -1 0 0 101   0  0.000000e+00  0.000000e+00  3.245076e+03  3.245076e+03 0.0 0.0 9.0
21 -1 0 0 103 101  0.000000e+00  0.000000e+00 -1.958731e+03  1.958731e+03 0.0 0.0 9.0
 2  1 1 2 103   0 -1.490313e+03 -1.370899e+03  2.193220e+03  2.985064e+03 0.0022 0.0 9.0
22  1 1 2   0   0  1.490313e+03  1.370899e+03 -9.068744e+02  2.218743e+03 0.0 0.0 9.0
#pdf 2 21 4.992425e-01 3.013432e-01 5000.0 7.087623e-02 2.475538e-01
</event>
<event>
4 7 1.0 5000.0 7.905138e-03 7.739137e-02
21 -1 0 0 103 101  0.000000e+00  0.000000e+00  3.801415e+03  3.801415e+03 0.0 0.0 9.0
 2 -1 0 0 101   0  0.000000e+00  0.000000e+00 -1.974981e+03  1.974981e+03 0.0 0.0 9.0
 2  1 1 2 103   0  1.326205e+03  2.150010e+03 -2.054777e+02  2.534479e+03 0.0022 0.0 9.0
22  1 1 2   0   0 -1.326205e+03 -2.150010e+03  2.031912e+03  3.241917e+03 0.0 0.0 9.0
#pdf 21 2 5.848331e-01 3.038432e-01 5000.0 8.154846e-04 3.439002e-02
</event>
<event>
4 7 1.0 5000.0 7.905138e-03 7.739137e-02
21 -1 0 0 103 101  0.000000e+00  0.000000e+00  1.963489e+03  1.963489e+03 0.0 0.0 9.0
 2 -1 0 0 101   0  0.000000e+00  0.000000e+00 -3.732734e+03  3.732734e+03 0.0 0.0 9.0
 2  1 1 2 103   0 -5.831417e+02 -2.599594e+03 -3.787265e+02  2.690980e+03 0.0022 0.0 9.0
22  1 1 2   0   0  5.831417e+02  2.599594e+03 -1.390518e+03  3.005242e+03 0.0 0.0 9.0
#pdf 21 2 3.020752e-01 5.742667e-01 5000.0 3.512716e-02 9.597831e-04
</event>
<event>
4 7 1.0 5000.0 7.905138e-03 7.739137e-02
 2 -1 0 0 101   0  0.000000e+00  0.000000e+00  1.351563e+03  1.351563e+03 0.0 0.0 9.0
21 -1 0 0 103 101  0.000000e+00  0.000000e+00 -3.622398e+03  3.622398e+03 0.0 0.0 9.0
22  1 1 2   0   0  1.849460e+03  3.327516e+02 -2.448436e+03  3.086432e+03 0.0 0.0 9.0
 2  1 1 2 103   0 -1.849460e+03 -3.327516e+02  1.776005e+02  1.887529e+03 0.0022 0.0 9.0
#pdf 2 21 2.079328e-01 5.572920e-01 5000.0 3.710885e-01 4.342740e-02
</event>
<event>
4 7 1.0 5000.0 7.905138e-03 7.739137e-02
21 -1 0 0 103 101  0.000000e+00  0.000000e+00  1.568306e+03  1.568306e+03 0.0 0.0 9.0
 2 -1 0 0 101   0  0.000000e+00  0.000000e+00 -3.567116e+03  3.567116e+03 0.0 0.0 9.0
 2  1 1 2 103   0  2.028034e+03  1.089315e+03 -4.099706e+02  2.338291e+03 0.0022 0.0 9.0
22  1 1 2   0   0 -2.028034e+03 -1.089315e+03 -1.588840e+03  2.797131e+03 0.0 0.0 9.0
#pdf 21 2 2.412778e-01 5.487871e-01 5000.0 7.441253e-02 1.406961e-03
</event>
<event>
4 7 1.0 5000.0 7.905138e-03 7.739137e-02
21 -1 0 0 103 101  0.000000e+00  0.000000e+00  2.441095e+03  2.441095e+03 0.0 0.0 9.0
 2 -1 0 0 101   0  0.000000e+00  0.000000e+00 -2.228973e+03  2.228973e+03 0.0 0.0 9.0
 2  1 1 2 103   0  9.901959e+02 -1.840501e+03 -9.309645e+02  2.287931e+03 0.0022 0.0 9.0
22  1 1 2   0   0 -9.901959e+02  1.840501e+03  1.143087e+03  2.382138e+03 0.0 0.0 9.0
#pdf 21 2 3.755531e-01 3.429189e-01 5000.0 1.423753e-02 2.128905e-02
</event>
<event>
4 7 1.0 5000.0 7.905138e-03 7.739137e-02
 2 -1 0 0 101   0  0.000000e+00  0.000000e+00  2.856088e+03  2.856088e+03 0.0 0.0 9.0
21 -1 0 0 103 101  0.000000e+00  0.000000e+00 -2.123511e+03  2.123511e+03 0.0 0.0 9.0
 2  1 1 2 103   0  1.412883e+03  2.498433e+02  2.389874e+03  2.787501e+03 0.0022 0.0 9.0
22  1 1 2   0   0 -1.412883e+03 -2.498433e+02 -1.657298e+03  2.192099e+03 0.0 0.0 9.0
#pdf 2 21 4.393982e-01 3.266941e-01 5000.0 1.100902e-01 2.174996e-01
</event>
<event>
4 7 1.0 5000.0 7.905138e-03 7.739137e-02
21 -1 0 0 103 101  0.000000e+00  0.000000e+00  1.833054e+03  1.833054e+03 0.0 0.0 9.0
 2 -1 0 0 101   0  0.000000e+00  0.000000e+00 -3.350514e+03  3.350514e+03 0.0 0.0 9.0
 2  1 1 2 103   0  5.741249e+02 -3.674042e+01 -3.279712e+03  3.329787e+03 0.0022 0.0 9.0
22  1 1 2   0   0 -5.741249e+02  3.674042e+01  1.762253e+03  1.853781e+03 0.0 0.0 9.0
#pdf 21 2 2.820084e-01 5.154637e-01 5000.0 4.489883e-02 2.272917e-03
</event>
<event>
4 7 1.0 5000.0 7.905138e-03 7.739137e-02
21 -1 0 0 103 101  0.000000e+00  0.000000e+00  1.596832e+03  1.596832e+03 0.0 0.0 9.0
 2 -1 0 0 101   0  0.000000e+00  0.000000e+00 -3.899236e+03  3.899236e+03 0.0 0.0 9.0
22  1 1 2   0   0  1.098052e+02  1.112452e+03  1.305648e+03  1.718814e+03 0.0 0.0 9.0
 2  1 1 2 103   0 -1.098052e+02 -1.112452e+03 -3.608052e+03  3.777254e+03 0.0022 0.0 9.0
#pdf 21 2 2.456664e-01 5.998825e-01 5000.0 7.035446e-02 6.430728e-04
</event>
<event>
4 7 1.0 5000.0 7.905138e-03 7.739137e-02
21 -1 0 0 103 101  0.000000e+00  0.000000e+00  3.262200e+03  3.262200e+03 0.0 0.0 9.0
 2 -1 0 0 101   0  0.000000e+00  0.000000e+00 -1.921603e+03  1.921603e+03 0.0 0.0 9.0
22  1 1 2   0   0 -8.939810e+02 -3.648615e+02  3.061700e+03  3.210348e+03 0.0 0.0 9.0
 2  1 1 2 103   0  8.939810e+02  3.648615e+02 -1.721103e+03  1.973455e+03 0.0022 0.0 9.0
#pdf 21 2 5.018769e-01 2.956312e-01 5000.0 2.745998e-03 3.803626e-02
</event>
<event>
4 7 1.0 5000.0 7.905138e-03 7.739137e-02
21 -1 0 0 103 101  0.000000e+00  0.000000e+00  1.739026e+03  1.739026e+03 0.0 0.0 9.0
 2 -1 0 0 101   0  0.000000e+00  0.000000e+00 -3.422349e+03  3.422349e+03 0.0 0.0 9.0
 2  1 1 2 103   0 -2.315601e+03  5.793616e+02 -3.086465e+02  2.406851e+03 0.0022 0.0 9.0
22  1 1 2   0   0  2.315601e+03 -5.793616e+02 -1.374676e+03  2.754524e+03 0.0 0.0 9.0
#pdf 21 2 2.675425e-01 5.265152e-01 5000.0 5.364460e-02 1.944111e-03
</event>
<event>
4 7 1.0 5000.0 7.905138e-03 7.739137e-02
21 -1 0 0 103 101  0.000000e+00  0.000000e+00  3.541795e+03  3.541795e+03 0.0 0.0 9.0
 2 -1 0 0 101   0  0.000000e+00  0.000000e+00 -1.735080e+03  1.735080e+03 0.0 0.0 9.0
 2  1 1 2 103   0 -1.917840e+03  4.830021e+01 -7.676219e+02  2.066322e+03 0.0022 0.0 9.0
22  1 1 2   0   0  1.917840e+03 -4.830021e+01  2.574336e+03  3.210553e+03 0.0 0.0 9.0
#pdf 21 2 5.448915e-01 2.669354e-01 5000.0 1.490434e-03 5.404772e-02
</event>
<event>
4 7 1.0 5000.0 7.905138e-03 7.739137e-02
 2 -1 0 0 101   0  0.000000e+00  0.000000e+00  2.217463e+03  2.217463e+03 0.0 0.0 9.0
21 -1 0 0 103 101  0.000000e+00  0.000000e+00 -3.010052e+03  3.010052e+03 0.0 0.0 9.0
 2  1 1 2 103   0  4.750870e+02 -2.346034e+03  5.872374e+02  2.464636e+03 0.0022 0.0 9.0
22  1 1 2   0   0 -4.750870e+02  2.346034e+03 -1.379826e+03  2.762879e+03 0.0 0.0 9.0
#pdf 2 21 3.411482e-01 4.630849e-01 5000.0 2.012700e-01 9.313694e-02
</event>
<event>
4 7 1.0 5000.0 7.905138e-03 7.739137e-02
21 -1 0 0 103 101  0.000000e+00  0.000000e+00  4.170979e+03  4.170979e+03 0.0 0.0 9.0
 2 -1 0 0 101   0  0.000000e+00  0.000000e+00 -1.508653e+03  1.508653e+03 0.0 0.0 9.0
 2  1 1 2 103   0  1.450709e+03  9.048464e+02  3.409153e+03  3.813873e+03 0.0022 0.0 9.0
22  1 1 2   0   0 -1.450709e+03 -9.048464e+02 -7.468272e+02  1.865758e+03 0.0 0.0 9.0
#pdf 21 2 6.416891e-01 2.321004e-01 5000.0 3.205209e-04 8.342209e-02
</event>
<event>
4 7 1.0 5000.0 7.905138e-03 7.739137e-02
21 -1 0 0 103 101  0.000000e+00  0.000000e+00  1.443050e+03  1.443050e+03 0.0 0.0 9.0
 2 -1 0 0 101   0  0.000000e+00  0.000000e+00 -4.359661e+03  4.359661e+03 0.0 0.0 9.0
22  1 1 2   0   0  6.429583e+02  2.417569e+03 -1.247625e+03  2.795461e+03 0.0 0.0 9.0
 2  1 1 2 103   0 -6.429583e+02 -2.417569e+03 -1.668986e+03  3.007250e+03 0.0022 0.0 9.0
#pdf 21 2 2.220077e-01 6.707171e-01 5000.0 9.480658e-02 1.903075e-04
</event>
<event>
4 7 1.0 5000.0 7.905138e-03 7.739137e-02
21 -1 0 0 103 101  0.000000e+00  0.000000e+00  3.289730e+03  3.289730e+03 0.0 0.0 9.0
 2 -1 0 0 101   0  0.000000e+00  0.000000e+00 -1.881259e+03  1.881259e+03 0.0 0.0 9.0
22  1 1 2   0   0 -5.220956e+02  7.559832e+02 -1.698481e+03  1.931044e+03 0.0 0.0 9.0
 2  1 1 2 103   0  5.220956e+02 -7.559832e+02  3.106952e+03  3.239945e+03 0.0022 0.0 9.0
#pdf 21 2 5.061124e-01 2.894245e-01 5000.0 2.589512e-03 4.102401e-02
</event>
<event>
4 7 1.0 5000.0 7.905138e-03 7.739137e-02
21 -1 0 0 103 101  0.000000e+00  0.000000e+00  4.388825e+03  4.388825e+03 0.0 0.0 9.0
 2 -1 0 0 101   0  0.000000e+00  0.000000e+00 -1.368417e+03  1.368417e+03 0.0 0.0 9.0
 2  1 1 2 103   0 -2.109565e+03  2.592336e+02  7.721494e+01  2.126835e+03 0.0022 0.0 9.0
22  1 1 2   0   0  2.109565e+03 -2.592336e+02  2.943193e+03  3.630407e+03 0.0 0.0 9.0
#pdf 21 2 6.752038e-01 2.105256e-01 5000.0 1.749586e-04 1.097840e-01
</event>
<event>
4 7 1.0 5000.0 7.905138e-03 7.739137e-02
 2 -1 0 0 101   0  0.000000e+00  0.000000e+00  1.936581e+03  1.936581e+03 0.0 0.0 9.0
21 -1 0 0 103 101  0.000000e+00  0.000000e+00 -3.222520e+03  3.222520e+03 0.0 0.0 9.0
22  1 1 2   0   0  2.034735e+02  1.149915e+03  1.637389e+03  2.011156e+03 0.0 0.0 9.0
 2  1 1 2 103   0 -2.034735e+02 -1.149915e+03 -2.923328e+03  3.147944e+03 0.0022 0.0 9.0
#pdf 2 21 2.979355e-01 4.957723e-01 5000.0 2.517299e-01 7.283145e-02
</event>
<event>
4 7 1.0 5000.0 7.905138e-03 7.739137e-02
 2 -1 0 0 101   0  0.000000e+00  0.000000e+00  1.310920e+03  1.310920e+03 0.0 0.0 9.0
21 -1 0 0 103 101  0.000000e+00  0.000000e+00 -4.728738e+03  4.728738e+03 0.0 0.0 9.0
 2  1 1 2 103   0 -2.365527e+03  1.066775e+01 -7.669344e+02  2.486769e+03 0.0022 0.0 9.0
22  1 1 2   0   0  2.365527e+03 -1.066775e+01 -2.650884e+03  3.552889e+03 0.0 0.0 9.0
#pdf 2 21 2.016800e-01 7.274982e-01 5000.0 3.797126e-01 6.040473e-03
</event>
<event>
4 7 1.0 5000.0 7.905138e-03 7.739137e-02
21 -1 0 0 103 101  0.000000e+00  0.000000e+00  1.790211e+03  1.790211e+03 0.0 0.0 9.0
 2 -1 0 0 101   0  0.000000e+00  0.000000e+00 -3.391591e+03  3.391591e+03 0.0 0.0 9.0
 2  1 1 2 103   0  2.217931e+03 -2.704057e+02 -1.893068e+03  2.928489e+03 0.0022 0.0 9.0
22  1 1 2   0   0 -2.217931e+03  2.704057e+02  2.916878e+02  2.253313e+03 0.0 0.0 9.0
#pdf 21 2 2.754171e-01 5.217833e-01 5000.0 4.869362e-02 2.078592e-03
</event>
<event>
4 7 1.0 5000.0 7.905138e-03 7.739137e-02
21 -1 0 0 103 101  0.000000e+00  0.000000e+00  2.845743e+03  2.845743e+03 0.0 0.0 9.0
 2 -1 0 0 101   0  0.000000e+00  0.000000e+00 -2.181039e+03  2.181039e+03 0.0 0.0 9.0
22  1 1 2   0   0  7.232260e+02  3.622131e+02 -2.044881e+03  2.199043e+03 0.0 0.0 9.0
 2  1 1 2 103   0 -7.232260e+02 -3.622131e+02  2.709584e+03  2.827738e+03 0.0022 0.0 9.0
#pdf 21 2 4.378065e-01 3.355444e-01 5000.0 6.471549e-03 2.330472e-02
</event>
<event>
4 7 1.0 5000.0 7.905138e-03 7.739137e-02
21 -1 0 0 103 101  0.000000e+00  0.000000e+00  3.721951e+03  3.721951e+03 0.0 0.0 9.0
 2 -1 0 0 101   0  0.000000e+00  0.000000e+00 -1.504181e+03  1.504181e+03 0.0 0.0 9.0
 2  1 1 2 103   0 -3.429929e+02  2.251299e+03  1.818176e+03  2.914062e+03 0.0022 0.0 9.0
22  1 1 2   0   0  3.429929e+02 -2.251299e+03  3.995944e+02  2.312070e+03 0.0 0.0 9.0
#pdf 21 2 5.726079e-01 2.314124e-01 5000.0 9.845677e-04 8.414060e-02
</event>
<event>
4 7 1.0 5000.0 7.905138e-03 7.739137e-02
 2 -1 0 0 101   0  0.000000e+00  0.000000e+00  1.912944e+03  1.912944e+03 0.0 0.0 9.0
21 -1 0 0 103 101  0.000000e+00  0.000000e+00 -3.234353e+03  3.234353e+03 0.0 0.0 9.0
 2  1 1 2 103   0  9.423022e+02  6.274197e+01 -3.041643e+03  3.184881e+03 0.0022 0.0 9.0
22  1 1 2   0   0 -9.423022e+02 -6.274197e+01  1.720234e+03  1.962416e+03 0.0 0.0 9.0
#pdf 2 21 2.942990e-01 4.975927e-01 5000.0 2.562244e-01 7.180101e-02
</event>
<event>
4 7 1.0 5000.0 7.905138e-03 7.739137e-02
21 -1 0 0 103 101  0.000000e+00  0.000000e+00  2.402638e+03  2.402638e+03 0.0 0.0 9.0
 2 -1 0 0 101   0  0.000000e+00  0.000000e+00 -2.566592e+03  2.566592e+03 0.0 0.0 9.0
 2  1 1 2 103   0 -1.446513e+03  5.011944e+02  1.874336e+03  2.420068e+03 0.0022 0.0 9.0
22  1 1 2   0   0  1.446513e+03 -5.011944e+02 -2.038290e+03  2.549161e+03 0.0 0.0 9.0
#pdf 21 2 3.696365e-01 3.948603e-01 5000.0 1.530478e-02 1.117897e-02
</event>
<event>
4 7 1.0 5000.0 7.905138e-03 7.739137e-02
 2 -1 0 0 101   0  0.000000e+00  0.000000e+00  4.105915e+03  4.105915e+03 0.0 0.0 9.0
21 -1 0 0 103 101  0.000000e+00  0.000000e+00 -1.584932e+03  1.584932e+03 0.0 0.0 9.0
22  1 1 2   0   0 -1.616742e+02 -1.031627e+03 -1.335625e+03  1.695372e+03 0.0 0.0 9.0
 2  1 1 2 103   0  1.616742e+02  1.031627e+03  3.856608e+03  3.995475e+03 0.0022 0.0 9.0
#pdf 2 21 6.316792e-01 2.438357e-01 5000.0 2.066170e-02 3.219040e-01
</event>
<event>
4 7 1.0 5000.0 7.905138e-03 7.739137e-02
21 -1 0 0 103 101  0.000000e+00  0.000000e+00  3.179675e+03  3.179675e+03 0.0 0.0 9.0
 2 -1 0 0 101   0  0.000000e+00  0.000000e+00 -1.955198e+03  1.955198e+03 0.0 0.0 9.0
22  1 1 2   0   0 -8.803120e+02  1.430971e+03 -1.284843e+03  2.115052e+03 0.0 0.0 9.0
 2  1 1 2 103   0  8.803120e+02 -1.430971e+03  2.509320e+03  3.019820e+03 0.0022 0.0 9.0
#pdf 21 2 4.891807e-01 3.007996e-01 5000.0 3.268628e-03 3.566325e-02
</event>
<event>
4 7 1.0 5000.0 7.905138e-03 7.739137e-02
 2 -1 0 0 101   0  0.000000e+00  0.000000e+00  3.256741e+03  3.256741e+03 0.0 0.0 9.0
21 -1 0 0 103 101  0.000000e+00  0.000000e+00 -1.796889e+03  1.796889e+03 0.0 0.0 9.0
 2  1 1 2 103   0 -1.235338e+03  3.450337e+02  2.872333e+03  3.145696e+03 0.0022 0.0 9.0
22  1 1 2   0   0  1.235338e+03 -3.450337e+02 -1.412481e+03  1.907934e+03 0.0 0.0 9.0
#pdf 2 21 5.010370e-01 2.764444e-01 5000.0 6.987992e-02 2.788353e-01
</event>
<event>
4 7 1.0 5000.0 7.905138e-03 7.739137e-02
21 -1 0 0 103 101  0.000000e+00  0.000000e+00  2.378865e+03  2.378865e+03 0.0 0.0 9.0
 2 -1 0 0 101   0  0.000000e+00  0.000000e+00 -2.634860e+03  2.634860e+03 0.0 0.0 9.0
 2  1 1 2 103   0 -3.415501e+02 -1.311683e+03 -2.235695e+03  2.614479e+03 0.0022 0.0 9.0
22  1 1 2   0   0  3.415501e+02  1.311683e+03  1.979700e+03  2.399246e+03 0.0 0.0 9.0
#pdf 21 2 3.659793e-01 4.053631e-01 5000.0 1.602424e-02 9.794365e-03
</event>
<event>
4 7 1.0 5000.0 7.905138e-03 7.739137e-02
 2 -1 0 0 101   0  0.000000e+00  0.000000e+00  1.441614e+03  1.441614e+03 0.0 0.0 9.0
21 -1 0 0 103 101  0.000000e+00  0.000000e+00 -4.168664e+03  4.168664e+03 0.0 0.0 9.0
22  1 1 2   0   0  2.642041e+02  7.866306e+02  1.276017e+03  1.522108e+03 0.0 0.0 9.0
 2  1 1 2 103   0 -2.642041e+02 -7.866306e+02 -4.003067e+03  4.088171e+03 0.0022 0.0 9.0
#pdf 2 21 2.217868e-01 6.413329e-01 5000.0 3.519648e-01 1.854799e-02
</event>
<event>
4 7 1.0 5000.0 7.905138e-03 7.739137e-02
 2 -1 0 0 101   0  0.000000e+00  0.000000e+00  3.901900e+03  3.901900e+03 0.0 0.0 9.0
21 -1 0 0 103 101  0.000000e+00  0.000000e+00 -1.542564e+03  1.542564e+03 0.0 0.0 9.0
 2  1 1 2 103   0 -7.974996e+02 -8.323450e+02 -1.223353e+03  1.680892e+03 0.0022 0.0 9.0
22  1 1 2   0   0  7.974996e+02  8.323450e+02  3.582690e+03  3.763572e+03 0.0 0.0 9.0
#pdf 2 21 6.002924e-01 2.373175e-01 5000.0 2.877798e-02 3.307124e-01
</event>
<event>
4 7 1.0 5000.0 7.905138e-03 7.739137e-02
 2 -1 0 0 101   0  0.000000e+00  0.000000e+00  2.087002e+03  2.087002e+03 0.0 0.0 9.0
21 -1 0 0 103 101  0.000000e+00  0.000000e+00 -2.827310e+03  2.827310e+03 0.0 0.0 9.0
 2  1 1 2 103   0 -7.609944e+02  2.253015e+03 -8.712627e+02  2.532645e+03 0.0022 0.0 9.0
22  1 1 2   0   0  7.609944e+02 -2.253015e+03  1.309543e+02  2.381667e+03 0.0 0.0 9.0
#pdf 2 21 3.210772e-01 4.349708e-01 5000.0 2.239926e-01 1.134665e-01
</event>
<event>
4 7 1.0 5000.0 7.905138e-03 7.739137e-02
21 -1 0 0 103 101  0.000000e+00  0.000000e+00  3.526154e+03  3.526154e+03 0.0 0.0 9.0
 2 -1 0 0 101   0  0.000000e+00  0.000000e+00 -1.764011e+03  1.764011e+03 0.0 0.0 9.0
22  1 1 2   0   0  7.609178e+01 -2.492806e+03  8.626359e+02  2.638942e+03 0.0 0.0 9.0
 2  1 1 2 103   0 -7.609178e+01  2.492806e+03  8.995064e+02  2.651223e+03 0.0022 0.0 9.0
#pdf 21 2 5.424852e-01 2.713864e-01 5000.0 1.543360e-03 5.116573e-02
</event>
<event>
4 7 1.0 5000.0 7.905138e-03 7.739137e-02
 2 -1 0 0 101   0  0.000000e+00  0.000000e+00  1.657404e+03  1.657404e+03 0.0 0.0 9.0
21 -1 0 0 103 101  0.000000e+00  0.000000e+00 -2.747234e+03  2.747234e+03 0.0 0.0 9.0
 2  1 1 2 103   0  1.875648e+03  3.555570e+02 -1.528818e+03  2.445764e+03 0.0022 0.0 9.0
22  1 1 2   0   0 -1.875648e+03 -3.555570e+02  4.389879e+02  1.958874e+03 0.0 0.0 9.0
#pdf 2 21 2.549852e-01 4.226514e-01 5000.0 3.069385e-01 1.232172e-01
</event>
<event>
4 7 1.0 5000.0 7.905138e-03 7.739137e-02
21 -1 0 0 103 101  0.000000e+00  0.000000e+00  4.439649e+03  4.439649e+03 0.0 0.0 9.0
 2 -1 0 0 101   0  0.000000e+00  0.000000e+00 -1.426509e+03  1.426509e+03 0.0 0.0 9.0
 2  1 1 2 103   0  7.720672e+02  1.060903e+03 -9.962974e+02  1.647486e+03 0.0022 0.0 9.0
22  1 1 2   0   0 -7.720672e+02 -1.060903e+03  4.009437e+03  4.218672e+03 0.0 0.0 9.0
#pdf 21 2 6.830229e-01 2.194629e-01 5000.0 1.508972e-04 9.794825e-02
</event>
<event>
4 7 1.0 5000.0 7.905138e-03 7.739137e-02
 2 -1 0 0 101   0  0.000000e+00  0.000000e+00  3.555811e+03  3.555811e+03 0.0 0.0 9.0
21 -1 0 0 103 101  0.000000e+00  0.000000e+00 -1.782802e+03  1.782802e+03 0.0 0.0 9.0
 2  1 1 2 103   0  5.559959e+02 -5.356363e+02  3.427227e+03  3.513107e+03 0.0022 0.0 9.0
22  1 1 2   0   0 -5.559959e+02  5.356363e+02 -1.654217e+03  1.825506e+03 0.0 0.0 9.0
#pdf 2 21 5.470479e-01 2.742772e-01 5000.0 4.758054e-02 2.816330e-01
</event>
<event>
4 7 1.0 5000.0 7.905138e-03 7.739137e-02
21 -1 0 0 103 101  0.000000e+00  0.000000e+00  2.768670e+03  2.768670e+03 0.0 0.0 9.0
 2 -1 0 0 101   0  0.000000e+00  0.000000e+00 -2.359958e+03  2.359958e+03 0.0 0.0 9.0
 2  1 1 2 103   0  7.144768e+02  1.225118e+02 -2.254681e+03  2.368348e+03 0.0022 0.0 9.0
22  1 1 2   0   0 -7.144768e+02 -1.225118e+02  2.663393e+03  2.760281e+03 0.0 0.0 9.0
#pdf 21 2 4.259493e-01 3.630705e-01 5000.0 7.533604e-03 1.661158e-02
</event>
<event>
4 7 1.0 5000.0 7.905138e-03 7.739137e-02
 2 -1 0 0 101   0  0.000000e+00  0.000000e+00  1.396645e+03  1.396645e+03 0.0 0.0 9.0
21 -1 0 0 103 101  0.000000e+00  0.000000e+00 -4.478226e+03  4.478226e+03 0.0 0.0 9.0
 2  1 1 2 103   0  1.852732e+03 -7.621165e+02  2.175327e+02  2.015132e+03 0.0022 0.0 9.0
22  1 1 2   0   0 -1.852732e+03  7.621165e+02 -3.299114e+03  3.859740e+03 0.0 0.0 9.0
#pdf 2 21 2.148685e-01 6.889579e-01 5000.0 3.614650e-01 1.038077e-02
</event>
<event>
4 7 1.0 5000.0 7.905138e-03 7.739137e-02
 2 -1 0 0 101   0  0.000000e+00  0.000000e+00  2.408918e+03  2.408918e+03 0.0 0.0 9.0
21 -1 0 0 103 101  0.000000e+00  0.000000e+00 -2.618973e+03  2.618973e+03 0.0 0.0 9.0
 2  1 1 2 103   0  1.693238e+03  7.539773e+02 -1.801607e+03  2.584825e+03 0.0022 0.0 9.0
22  1 1 2   0   0 -1.693238e+03 -7.539773e+02  1.591551e+03  2.443066e+03 0.0 0.0 9.0
#pdf 2 21 3.706028e-01 4.029190e-01 5000.0 1.703643e-01 1.399781e-01
</event>
<event>
4 7 1.0 5000.0 7.905138e-03 7.739137e-02
 2 -1 0 0 101   0  0.000000e+00  0.000000e+00  4.316005e+03  4.316005e+03 0.0 0.0 9.0
21 -1 0 0 103 101  0.000000e+00  0.000000e+00 -1.444143e+03  1.444143e+03 0.0 0.0 9.0
 2  1 1 2 103   0 -2.141970e+02  2.487115e+03  1.394208e+03  2.859272e+03 0.0022 0.0 9.0
22  1 1 2   0   0  2.141970e+02 -2.487115e+03  1.477654e+03  2.900876e+03 0.0 0.0 9.0
#pdf 2 21 6.640008e-01 2.221759e-01 5000.0 1.421455e-02 3.514323e-01
</event>
<event>
4 7 1.0 5000.0 7.905138e-03 7.739137e-02
 2 -1 0 0 101   0  0.000000e+00  0.000000e+00  4.096950e+03  4.096950e+03 0.0 0.0 9.0
21 -1 0 0 103 101  0.000000e+00  0.000000e+00 -1.498962e+03  1.498962e+03 0.0 0.0 9.0
22  1 1 2   0   0 -8.604778e+02 -5.545092e+02 -1.249089e+03  1.614969e+03 0.0 0.0 9.0
 2  1 1 2 103   0  8.604778e+02  5.545092e+02  3.847077e+03  3.980943e+03 0.0022 0.0 9.0
#pdf 2 21 6.303000e-01 2.306096e-01 5000.0 2.097775e-02 3.398936e-01
</event>
<event>
4 7 1.0 5000.0 7.905138e-03 7.739137e-02
21 -1 0 0 103 101  0.000000e+00  0.000000e+00  3.519568e+03  3.519568e+03 0.0 0.0 9.0
 2 -1 0 0 101   0  0.000000e+00  0.000000e+00 -1.775529e+03  1.775529e+03 0.0 0.0 9.0
22  1 1 2   0   0  2.188661e+03 -1.084574e+03  3.090420e+02  2.462122e+03 0.0 0.0 9.0
 2  1 1 2 103   0 -2.188661e+03  1.084574e+03  1.434997e+03  2.832976e+03 0.0022 0.0 9.0
#pdf 21 2 5.414721e-01 2.731584e-01 5000.0 1.566113e-03 5.006364e-02
</event>
<event>
4 7 1.0 5000.0 7.905138e-03 7.739137e-02
21 -1 0 0 103 101  0.000000e+00  0.000000e+00  1.173694e+03  1.173694e+03 0.0 0.0 9.0
 2 -1 0 0 101   0  0.000000e+00  0.000000e+00 -4.858128e+03  4.858128e+03 0.0 0.0 9.0
 2  1 1 2 103   0  6.012780e+02  1.248674e+03  6.137548e+02  1.515724e+03 0.0022 0.0 9.0
22  1 1 2   0   0 -6.012780e+02 -1.248674e+03 -4.298189e+03  4.516099e+03 0.0 0.0 9.0
#pdf 21 2 1.805683e-01 7.474043e-01 5000.0 1.628624e-01 3.908826e-05
</event>
<event>
4 7 1.0 5000.0 7.905138e-03 7.739137e-02
21 -1 0 0 103 101  0.000000e+00  0.000000e+00  1.221254e+03  1.221254e+03 0.0 0.0 9.0
 2 -1 0 0 101   0  0.000000e+00  0.000000e+00 -5.292449e+03  5.292449e+03 0.0 0.0 9.0
22  1 1 2   0   0  9.009187e+02 -2.342722e+03 -2.553469e+03  3.580531e+03 0.0 0.0 9.0
 2  1 1 2 103   0 -9.009187e+02  2.342722e+03 -1.517727e+03  2.933171e+03 0.0022 0.0 9.0
#pdf 21 2 1.878852e-01 8.142230e-01 5000.0 1.476335e-01 6.723429e-06
</event>
<event>
4 7 1.0 5000.0 7.905138e-03 7.739137e-02
 2 -1 0 0 101   0  0.000000e+00  0.000000e+00  1.743810e+03  1.743810e+03 0.0 0.0 9.0
21 -1 0 0 103 101  0.000000e+00  0.000000e+00 -3.677707e+03  3.677707e+03 0.0 0.0 9.0
22  1 1 2   0   0  1.167414e+03  1.168568e+02 -3.369242e+03  3.567675e+03 0.0 0.0 9.0
 2  1 1 2 103   0 -1.167414e+03 -1.168568e+02  1.435346e+03  1.853842e+03 0.0022 0.0 9.0
#pdf 2 21 2.682785e-01 5.658010e-01 5000.0 2.894343e-01 4.017089e-02
</event>
<event>
4 7 1.0 5000.0 7.905138e-03 7.739137e-02
21 -1 0 0 103 101  0.000000e+00  0.000000e+00  2.553818e+03  2.553818e+03 0.0 0.0 9.0
 2 -1 0 0 101   0  0.000000e+00  0.000000e+00 -2.486160e+03  2.486160e+03 0.0 0.0 9.0
 2  1 1 2 103   0 -1.514273e+02  5.733130e+02 -2.415387e+03  2.487110e+03 0.0022 0.0 9.0
22  1 1 2   0   0  1.514273e+02 -5.733130e+02  2.483046e+03  2.552868e+03 0.0 0.0 9.0
#pdf 21 2 3.928951e-01 3.824861e-01 5000.0 1.145847e-02 1.306324e-02
</event>
<event>
4 7 1.0 5000.0 7.905138e-03 7.739137e-02
21 -1 0 0 103 101  0.000000e+00  0.000000e+00  1.801911e+03  1.801911e+03 0.0 0.0 9.0
 2 -1 0 0 101   0  0.000000e+00  0.000000e+00 -3.553525e+03  3.553525e+03 0.0 0.0 9.0
 2  1 1 2 103   0 -9.949499e+02  2.052809e+03  2.830024e+02  2.298704e+03 0.0022 0.0 9.0
22  1 1 2   0   0  9.949499e+02 -2.052809e+03 -2.034616e+03  3.056732e+03 0.0 0.0 9.0
#pdf 21 2 2.772171e-01 5.466962e-01 5000.0 4.762828e-02 1.451517e-03
</event>
<event>
4 7 1.0 5000.0 7.905138e-03 7.739137e-02
 2 -1 0 0 101   0  0.000000e+00  0.000000e+00  2.405273e+03  2.405273e+03 0.0 0.0 9.0
21 -1 0 0 103 101  0.000000e+00  0.000000e+00 -2.657611e+03  2.657611e+03 0.0 0.0 9.0
22  1 1 2   0   0  8.539273e+02 -9.570143e+02 -2.307690e+03  2.640171e+03 0.0 0.0 9.0
 2  1 1 2 103   0 -8.539273e+02  9.570143e+02  2.055352e+03  2.422713e+03 0.0022 0.0 9.0
#pdf 2 21 3.700420e-01 4.088633e-01 5000.0 1.709247e-01 1.347845e-01
</event>
<event>
4 7 1.0 5000.0 7.905138e-03 7.739137e-02
 2 -1 0 0 101   0  0.000000e+00  0.000000e+00  3.182068e+03  3.182068e+03 0.0 0.0 9.0
21 -1 0 0 103 101  0.000000e+00  0.000000e+00 -1.967042e+03  1.967042e+03 0.0 0.0 9.0
 2  1 1 2 103   0 -1.817521e+03  1.128202e+03  1.942532e+03  2.889577e+03 0.0022 0.0 9.0
22  1 1 2   0   0  1.817521e+03 -1.128202e+03 -7.275072e+02  2.259533e+03 0.0 0.0 9.0
#pdf 2 21 4.895488e-01 3.026219e-01 5000.0 7.643308e-02 2.459882e-01
</event>
<event>
4 7 1.0 5000.0 7.905138e-03 7.739137e-02
 2 -1 0 0 101   0  0.000000e+00  0.000000e+00  3.229929e+03  3.229929e+03 0.0 0.0 9.0
21 -1 0 0 103 101  0.000000e+00  0.000000e+00 -1.975616e+03  1.975616e+03 0.0 0.0 9.0
22  1 1 2   0   0 -1.135166e+03 -6.600094e+02  2.850652e+03  3.138540e+03 0.0 0.0 9.0
 2  1 1 2 103   0  1.135166e+03  6.600094e+02 -1.596339e+03  2.067005e+03 0.0022 0.0 9.0
#pdf 2 21 4.969122e-01 3.039409e-01 5000.0 7.218500e-02 2.443792e-01
</event>
<event>
4 7 1.0 5000.0 7.905138e-03 7.739137e-02
21 -1 0 0 103 101  0.000000e+00  0.000000e+00  1.394558e+03  1.394558e+03 0.0 0.0 9.0
 2 -1 0 0 101   0  0.000000e+00  0.000000e+00 -4.819842e+03  4.819842e+03 0.0 0.0 9.0
 2  1 1 2 103   0  1.037363e+03  2.674145e+02 -4.542175e+03  4.666796e+03 0.0022 0.0 9.0
22  1 1 2   0   0 -1.037363e+03 -2.674145e+02  1.116891e+03  1.547604e+03 0.0 0.0 9.0
#pdf 21 2 2.145474e-01 7.415142e-01 5000.0 1.043065e-01 4.469979e-05
</event>
<event>
4 7 1.0 5000.0 7.905138e-03 7.739137e-02
21 -1 0 0 103 101  0.000000e+00  0.000000e+00  3.093424e+03  3.093424e+03 0.0 0.0 9.0
 2 -1 0 0 101   0  0.000000e+00  0.000000e+00 -1.746158e+03  1.746158e+03 0.0 0.0 9.0
22  1 1 2   0   0  4.216213e+02 -8.405429e+02  2.886510e+03  3.035822e+03 0.0 0.0 9.0
 2  1 1 2 103   0 -4.216213e+02  8.405429e+02 -1.539244e+03  1.803760e+03 0.0022 0.0 9.0
#pdf 21 2 4.759114e-01 2.686397e-01 5000.0 3.912495e-03 5.292426e-02
</event>
<event>
4 7 1.0 5000.0 7.905138e-03 7.739137e-02
21 -1 0 0 103 101  0.000000e+00  0.000000e+00  2.454005e+03  2.454005e+03 0.0 0.0 9.0
 2 -1 0 0 101   0  0.000000e+00  0.000000e+00 -2.678182e+03  2.678182e+03 0.0 0.0 9.0
22  1 1 2   0   0 -1.863083e+02  2.525485e+03 -5.118269e+02  2.583554e+03 0.0 0.0 9.0
 2  1 1 2 103   0  1.863083e+02 -2.525485e+03  2.876494e+02  2.548632e+03 0.0022 0.0 9.0
#pdf 21 2 3.775392e-01 4.120280e-01 5000.0 1.389377e-02 8.998482e-03
</event>
<event>
4 7 1.0 5000.0 7.905138e-03 7.739137e-02
 2 -1 0 0 101   0  0.000000e+00  0.000000e+00  1.462152e+03  1.462152e+03 0.0 0.0 9.0
21 -1 0 0 103 101  0.000000e+00  0.000000e+00 -4.127079e+03  4.127079e+03 0.0 0.0 9.0
 2  1 1 2 103   0  6.179648e+02  1.201897e+03  1.001216e+03  1.681925e+03 0.0022 0.0 9.0
22  1 1 2   0   0 -6.179648e+02 -1.201897e+03 -3.666143e+03  3.907307e+03 0.0 0.0 9.0
#pdf 2 21 2.249464e-01 6.349353e-01 5000.0 3.476431e-01 1.992983e-02
</event>
<event>
4 7 1.0 5000.0 7.905138e-03 7.739137e-02
 2 -1 0 0 101   0  0.000000e+00  0.000000e+00  1.489575e+03  1.489575e+03 0.0 0.0 9.0
21 -1 0 0 103 101  0.000000e+00  0.000000e+00 -4.124499e+03  4.124499e+03 0.0 0.0 9.0
 2  1 1 2 103   0  1.885957e+03  1.227434e+03 -1.403776e+02  2.254581e+03 0.0022 0.0 9.0
22  1 1 2   0   0 -1.885957e+03 -1.227434e+03 -2.494547e+03  3.359493e+03 0.0 0.0 9.0
#pdf 2 21 2.291653e-01 6.345383e-01 5000.0 3.418731e-01 2.001800e-02
</event>
<event>
4 7 1.0 5000.0 7.905138e-03 7.739137e-02
21 -1 0 0 103 101  0.000000e+00  0.000000e+00  1.405932e+03  1.405932e+03 0.0 0.0 9.0
 2 -1 0 0 101   0  0.000000e+00  0.000000e+00 -4.334292e+03  4.334292e+03 0.0 0.0 9.0
22  1 1 2   0   0 -7.556773e+02 -1.780555e+03 -3.247395e+03  3.779814e+03 0.0 0.0 9.0
 2  1 1 2 103   0  7.556773e+02  1.780555e+03  3.190352e+02  1.960410e+03 0.0022 0.0 9.0
#pdf 21 2 2.162973e-01 6.668141e-01 5000.0 1.019999e-01 2.042932e-04
</event>
<event>
4 7 1.0 5000.0 7.905138e-03 7.739137e-02
 2 -1 0 0 101   0  0.000000e+00  0.000000e+00  2.937293e+03  2.937293e+03 0.0 0.0 9.0
21 -1 0 0 103 101  0.000000e+00  0.000000e+00 -1.987860e+03  1.987860e+03 0.0 0.0 9.0
 2  1 1 2 103   0 -1.440048e+03 -2.688462e+00 -1.502782e+03  2.081370e+03 0.0022 0.0 9.0
22  1 1 2   0   0  1.440048e+03  2.688462e+00  2.452215e+03  2.843783e+03 0.0 0.0 9.0
#pdf 2 21 4.518912e-01 3.058246e-01 5000.0 1.009108e-01 2.420917e-01
</event>
<event>
4 7 1.0 5000.0 7.905138e-03 7.739137e-02
 2 -1 0 0 101   0  0.000000e+00  0.000000e+00  3.571684e+03  3.571684e+03 0.0 0.0 9.0
21 -1 0 0 103 101  0.000000e+00  0.000000e+00 -1.616924e+03  1.616924e+03 0.0 0.0 9.0
 2  1 1 2 103   0 -1.688770e+02 -6.177159e+02  3.477878e+03  3.536343e+03 0.0022 0.0 9.0
22  1 1 2   0   0  1.688770e+02  6.177159e+02 -1.523117e+03  1.652265e+03 0.0 0.0 9.0
#pdf 2 21 5.494899e-01 2.487575e-01 5000.0 4.655653e-02 3.152739e-01
</event>
<event>
4 7 1.0 5000.0 7.905138e-03 7.739137e-02
 2 -1 0 0 101   0  0.000000e+00  0.000000e+00  2.097249e+03  2.097249e+03 0.0 0.0 9.0
21 -1 0 0 103 101  0.000000e+00  0.000000e+00 -2.860959e+03  2.860959e+03 0.0 0.0 9.0
 2  1 1 2 103   0 -2.385163e+03  5.570225e+02 -4.116401e+02  2.483692e+03 0.0022 0.0 9.0
22  1 1 2   0   0  2.385163e+03 -5.570225e+02 -3.520699e+02  2.474516e+03 0.0 0.0 9.0
#pdf 2 21 3.226537e-01 4.401475e-01 5000.0 2.221608e-01 1.095244e-01
</event>
<event>
4 7 1.0 5000.0 7.905138e-03 7.739137e-02
 2 -1 0 0 101   0  0.000000e+00  0.000000e+00  1.079558e+03  1.079558e+03 0.0 0.0 9.0
21 -1 0 0 103 101  0.000000e+00  0.000000e+00 -5.624392e+03  5.624392e+03 0.0 0.0 9.0
 2  1 1 2 103   0  9.934904e+02  1.486076e+02  7.883705e+02  1.276963e+03 0.0022 0.0 9.0
22  1 1 2   0   0 -9.934904e+02 -1.486076e+02 -5.333205e+03  5.426986e+03 0.0 0.0 9.0
#pdf 2 21 1.660858e-01 8.652911e-01 5000.0 4.284349e-01 3.374191e-04
</event>
<event>
4 7 1.0 5000.0 7.905138e-03 7.739137e-02
21 -1 0 0 103 101  0.000000e+00  0.000000e+00  3.050569e+03  3.050569e+03 0.0 0.0 9.0
 2 -1 0 0 101   0  0.000000e+00  0.000000e+00 -1.591235e+03  1.591235e+03 0.0 0.0 9.0
22  1 1 2   0   0 -1.306480e+02  2.108878e+03  7.203230e+01  2.114149e+03 0.0 0.0 9.0
 2  1 1 2 103   0  1.306480e+02 -2.108878e+03  1.387301e+03  2.527655e+03 0.0022 0.0 9.0
#pdf 21 2 4.693183e-01 2.448054e-01 5000.0 4.273424e-03 7.113846e-02
</event>
<event>
4 7 1.0 5000.0 7.905138e-03 7.739137e-02
21 -1 0 0 103 101  0.000000e+00  0.000000e+00  1.855796e+03  1.855796e+03 0.0 0.0 9.0
 2 -1 0 0 101   0  0.000000e+00  0.000000e+00 -3.354015e+03  3.354015e+03 0.0 0.0 9.0
22  1 1 2   0   0 -1.077595e+03  2.006066e+03 -1.813305e+03  2.910943e+03 0.0 0.0 9.0
 2  1 1 2 103   0  1.077595e+03 -2.006066e+03  3.150863e+02  2.298868e+03 0.0022 0.0 9.0
#pdf 21 2 2.855071e-01 5.160023e-01 5000.0 4.301816e-02 2.255731e-03
</event>
<event>
4 7 1.0 5000.0 7.905138e-03 7.739137e-02
 2 -1 0 0 101   0  0.000000e+00  0.000000e+00  1.630292e+03  1.630292e+03 0.0 0.0 9.0
21 -1 0 0 103 101  0.000000e+00  0.000000e+00 -3.896617e+03  3.896617e+03 0.0 0.0 9.0
22  1 1 2   0   0  1.054704e+03 -2.287213e+03 -1.029847e+03  2.721089e+03 0.0 0.0 9.0
 2  1 1 2 103   0 -1.054704e+03  2.287213e+03 -1.236478e+03  2.805819e+03 0.0022 0.0 9.0
#pdf 2 21 2.508141e-01 5.994795e-01 5000.0 3.125064e-01 2.901471e-02
</event>
<event>
4 7 1.0 5000.0 7.905138e-03 7.739137e-02
21 -1 0 0 103 101  0.000000e+00  0.000000e+00  1.878362e+03  1.878362e+03 0.0 0.0 9.0
 2 -1 0 0 101   0  0.000000e+00  0.000000e+00 -3.330210e+03  3.330210e+03 0.0 0.0 9.0
 2  1 1 2 103   0 -2.275071e+02 -2.305068e+03  2.565421e+02  2.330431e+03 0.0022 0.0 9.0
22  1 1 2   0   0  2.275071e+02  2.305068e+03 -1.708390e+03  2.878141e+03 0.0 0.0 9.0
#pdf 21 2 2.889788e-01 5.123400e-01 5000.0 4.124586e-02 2.374691e-03
</event>
<event>
4 7 1.0 5000.0 7.905138e-03 7.739137e-02
 2 -1 0 0 101   0  0.000000e+00  0.000000e+00  3.985339e+03  3.985339e+03 0.0 0.0 9.0
21 -1 0 0 103 101  0.000000e+00  0.000000e+00 -1.536690e+03  1.536690e+03 0.0 0.0 9.0
22  1 1 2   0   0 -1.382519e+03 -1.241014e+03  3.048315e+03  3.569832e+03 0.0 0.0 9.0
 2  1 1 2 103   0  1.382519e+03  1.241014e+03 -5.996662e+02  1.952198e+03 0.0022 0.0 9.0
#pdf 2 21 6.131291e-01 2.364139e-01 5000.0 2.522045e-02 3.319449e-01
</event>
<event>
4 7 1.0 5000.0 7.905138e-03 7.739137e-02
21 -1 0 0 103 101  0.000000e+00  0.000000e+00  2.056076e+03  2.056076e+03 0.0 0.0 9.0
 2 -1 0 0 101   0  0.000000e+00  0.000000e+00 -3.001317e+03  3.001317e+03 0.0 0.0 9.0
22  1 1 2   0   0  2.187619e+03  9.449003e+02  2.416940e+02  2.395189e+03 0.0 0.0 9.0
 2  1 1 2 103   0 -2.187619e+03 -9.449003e+02 -1.186935e+03  2.662204e+03 0.0022 0.0 9.0
#pdf 21 2 3.163194e-01 4.617411e-01 5000.0 2.949664e-02 4.724802e-03
</event>
<event>
4 7 1.0 5000.0 7.905138e-03 7.739137e-02
21 -1 0 0 103 101  0.000000e+00  0.000000e+00  3.370959e+03  3.370959e+03 0.0 0.0 9.0
 2 -1 0 0 101   0  0.000000e+00  0.000000e+00 -1.869953e+03  1.869953e+03 0.0 0.0 9.0
 2  1 1 2 103   0  1.829863e+03 -1.358509e+03 -3.489234e+02  2.305578e+03 0.0022 0.0 9.0
22  1 1 2   0   0 -1.829863e+03  1.358509e+03  1.849930e+03  2.935334e+03 0.0 0.0 9.0
#pdf 21 2 5.186091e-01 2.876850e-01 5000.0 2.174016e-03 4.189674e-02
</event>
<event>
4 7 1.0 5000.0 7.905138e-03 7.739137e-02
21 -1 0 0 103 101  0.000000e+00  0.000000e+00  4.103322e+03  4.103322e+03 0.0 0.0 9.0
 2 -1 0 0 101   0  0.000000e+00  0.000000e+00 -1.566938e+03  1.566938e+03 0.0 0.0 9.0
 2  1 1 2 103   0  1.446546e+03 -1.032802e+03  3.290208e+03  3.739605e+03 0.0022 0.0 9.0
22  1 1 2   0   0 -1.446546e+03  1.032802e+03 -7.538248e+02  1.930655e+03 0.0 0.0 9.0
#pdf 21 2 6.312802e-01 2.410674e-01 5000.0 3.831764e-04 7.461013e-02
</event>
<event>
4 7 1.0 5000.0 7.905138e-03 7.739137e-02
21 -1 0 0 103 101  0.000000e+00  0.000000e+00  1.933548e+03  1.933548e+03 0.0 0.0 9.0
 2 -1 0 0 101   0  0.000000e+00  0.000000e+00 -3.309588e+03  3.309588e+03 0.0 0.0 9.0
22  1 1 2   0   0  6.112997e+02 -1.300339e+03  1.469601e+03  2.055309e+03 0.0 0.0 9.0
 2  1 1 2 103   0 -6.112997e+02  1.300339e+03 -2.845641e+03  3.187827e+03 0.0022 0.0 9.0
#pdf 21 2 2.974690e-01 5.091673e-01 5000.0 3.717871e-02 2.482017e-03
</event>
<event>
4 7 1.0 5000.0 7.905138e-03 7.739137e-02
21 -1 0 0 103 101  0.000000e+00  0.000000e+00  4.357120e+03  4.357120e+03 0.0 0.0 9.0
 2 -1 0 0 101   0  0.000000e+00  0.000000e+00 -1.427576e+03  1.427576e+03 0.0 0.0 9.0
22  1 1 2   0   0 -1.551999e+03 -8.529751e+02 -5.717914e+02  1.860971e+03 0.0 0.0 9.0
 2  1 1 2 103   0  1.551999e+03  8.529751e+02  3.501335e+03  3.923725e+03 0.0022 0.0 9.0
#pdf 21 2 6.703261e-01 2.196271e-01 5000.0 1.916802e-04 9.774251e-02
</event>
<event>
4 7 1.0 5000.0 7.905138e-03 7.739137e-02
 2 -1 0 0 101   0  0.000000e+00  0.000000e+00  3.169666e+03  3.169666e+03 0.0 0.0 9.0
21 -1 0 0 103 101  0.000000e+00  0.000000e+00 -1.990188e+03  1.990188e+03 0.0 0.0 9.0
22  1 1 2   0   0 -1.353665e+03 -1.834290e+03  1.672543e+03  2.827443e+03 0.0 0.0 9.0
 2  1 1 2 103   0  1.353665e+03  1.834290e+03 -4.930650e+02  2.332412e+03 0.0022 0.0 9.0
#pdf 2 21 4.876410e-01 3.061828e-01 5000.0 7.756171e-02 2.416582e-01
</event>
<event>
4 7 1.0 5000.0 7.905138e-03 7.739137e-02
21 -1 0 0 103 101  0.000000e+00  0.000000e+00  1.943667e+03  1.943667e+03 0.0 0.0 9.0
 2 -1 0 0 101   0  0.000000e+00  0.000000e+00 -3.171124e+03  3.171124e+03 0.0 0.0 9.0
 2  1 1 2 103   0 -1.966281e+03 -3.756708e+00 -2.175049e+03  2.932084e+03 0.0022 0.0 9.0
22  1 1 2   0   0  1.966281e+03  3.756708e+00  9.475921e+02  2.182706e+03 0.0 0.0 9.0
#pdf 21 2 2.990256e-01 4.878652e-01 5000.0 3.645846e-02 3.327541e-03
</event>
<event>
4 7 1.0 5000.0 7.905138e-03 7.739137e-02
 2 -1 0 0 101   0  0.000000e+00  0.000000e+00  1.431350e+03  1.431350e+03 0.0 0.0 9.0
21 -1 0 0 103 101  0.000000e+00  0.000000e+00 -4.415524e+03  4.415524e+03 0.0 0.0 9.0
22  1 1 2   0   0  8.369067e+02  2.369887e+03 -1.424464e+03  2.888923e+03 0.0 0.0 9.0
 2  1 1 2 103   0 -8.369067e+02 -2.369887e+03 -1.559711e+03  2.957951e+03 0.0022 0.0 9.0
#pdf 2 21 2.202077e-01 6.793114e-01 5000.0 3.541275e-01 1.175178e-02
</event>
<event>
4 7 1.0 5000.0 7.905138e-03 7.739137e-02
21 -1 0 0 103 101  0.000000e+00  0.000000e+00  2.408471e+03  2.408471e+03 0.0 0.0 9.0
 2 -1 0 0 101   0  0.000000e+00  0.000000e+00 -2.161908e+03  2.161908e+03 0.0 0.0 9.0
 2  1 1 2 103   0 -6.865331e+02  2.026178e+03 -6.717053e+02  2.242301e+03 0.0022 0.0 9.0
22  1 1 2   0   0  6.865331e+02 -2.026178e+03  9.182681e+02  2.328077e+03 0.0 0.0 9.0
#pdf 21 2 3.705339e-01 3.326012e-01 5000.0 1.513524e-02 2.416344e-02
</event>
<event>
4 7 1.0 5000.0 7.905138e-03 7.739137e-02
21 -1 0 0 103 101  0.000000e+00  0.000000e+00  3.527708e+03  3.527708e+03 0.0 0.0 9.0
 2 -1 0 0 101   0  0.000000e+00  0.000000e+00 -1.741418e+03  1.741418e+03 0.0 0.0 9.0
 2  1 1 2 103   0 -2.067536e+03  6.854059e+02 -3.639767e+02  2.208386e+03 0.0022 0.0 9.0
22  1 1 2   0   0  2.067536e+03 -6.854059e+02  2.150266e+03  3.060740e+03 0.0 0.0 9.0
#pdf 21 2 5.427242e-01 2.679105e-01 5000.0 1.538036e-03 5.340181e-02
</event>
<event>
4 7 1.0 5000.0 7.905138e-03 7.739137e-02
21 -1 0 0 103 101  0.000000e+00  0.000000e+00  1.676003e+03  1.676003e+03 0.0 0.0 9.0
 2 -1 0 0 101   0  0.000000e+00  0.000000e+00 -3.749727e+03  3.749727e+03 0.0 0.0 9.0
22  1 1 2   0   0  2.668012e+02 -1.911057e+03 -2.768733e+03  3.374789e+03 0.0 0.0 9.0
 2  1 1 2 103   0 -2.668012e+02  1.911057e+03  6.950082e+02  2.050941e+03 0.0022 0.0 9.0
#pdf 21 2 2.578466e-01 5.768811e-01 5000.0 6.051971e-02 9.219862e-04
</event>
<event>
4 7 1.0 5000.0 7.905138e-03 7.739137e-02
21 -1 0 0 103 101  0.000000e+00  0.000000e+00  2.806924e+03  2.806924e+03 0.0 0.0 9.0
 2 -1 0 0 101   0  0.000000e+00  0.000000e+00 -2.239233e+03  2.239233e+03 0.0 0.0 9.0
 2  1 1 2 103   0 -8.344107e+02 -1.565728e+03  2.066493e+03  2.723626e+03 0.0022 0.0 9.0
22  1 1 2   0   0  8.344107e+02  1.565728e+03 -1.498803e+03  2.322532e+03 0.0 0.0 9.0
#pdf 21 2 4.318345e-01 3.444974e-01 5000.0 6.985278e-03 2.088224e-02
</event>
<event>
4 7 1.0 5000.0 7.905138e-03 7.739137e-02
 2 -1 0 0 101   0  0.000000e+00  0.000000e+00  2.995139e+03  2.995139e+03 0.0 0.0 9.0
21 -1 0 0 103 101  0.000000e+00  0.000000e+00 -1.944121e+03  1.944121e+03 0.0 0.0 9.0
22  1 1 2   0   0  1.483422e+03  6.581881e+02  2.353188e+03  2.858539e+03 0.0 0.0 9.0
 2  1 1 2 103   0 -1.483422e+03 -6.581881e+02 -1.302170e+03  2.080721e+03 0.0022 0.0 9.0
#pdf 2 21 4.607906e-01 2.990956e-01 5000.0 9.469253e-02 2.503074e-01
</event>
<event>
4 7 1.0 5000.0 7.905138e-03 7.739137e-02
 2 -1 0 0 101   0  0.000000e+00  0.000000e+00  1.336639e+03  1.336639e+03 0.0 0.0 9.0
21 -1 0 0 103 101  0.000000e+00  0.000000e+00 -3.666020e+03  3.666020e+03 0.0 0.0 9.0
22  1 1 2   0   0  1.047663e+03 -1.598802e+02  1.031343e+03  1.478793e+03 0.0 0.0 9.0
 2  1 1 2 103   0 -1.047663e+03  1.598802e+02 -3.360724e+03  3.523866e+03 0.0022 0.0 9.0
#pdf 2 21 2.056367e-01 5.640031e-01 5000.0 3.742677e-01 4.084615e-02
</event>
<event>
4 7 1.0 5000.0 7.905138e-03 7.739137e-02
 2 -1 0 0 101   0  0.000000e+00  0.000000e+00  1.881241e+03  1.881241e+03 0.0 0.0 9.0
21 -1 0 0 103 101  0.000000e+00  0.000000e+00 -3.277174e+03  3.277174e+03 0.0 0.0 9.0
22  1 1 2   0   0  2.449762e+02 -2.133755e+03  5.962072e+02  2.228988e+03 0.0 0.0 9.0
 2  1 1 2 103   0 -2.449762e+02  2.133755e+03 -1.992141e+03  2.929428e+03 0.0022 0.0 9.0
#pdf 2 21 2.894217e-01 5.041807e-01 5000.0 2.623250e-01 6.815835e-02
</event>
<event>
4 7 1.0 5000.0 7.905138e-03 7.739137e-02
21 -1 0 0 103 101  0.000000e+00  0.000000e+00  2.137633e+03  2.137633e+03 0.0 0.0 9.0
 2 -1 0 0 101   0  0.000000e+00  0.000000e+00 -2.905406e+03  2.905406e+03 0.0 0.0 9.0
22  1 1 2   0   0 -1.022653e+03  1.430733e+03  1.402691e+03  2.249524e+03 0.0 0.0 9.0
 2  1 1 2 103   0  1.022653e+03 -1.430733e+03 -2.170463e+03  2.793515e+03 0.0022 0.0 9.0
#pdf 21 2 3.288667e-01 4.469855e-01 5000.0 2.529473e-02 5.734895e-03
</event>
<event>
4 7 1.0 5000.0 7.905138e-03 7.739137e-02
21 -1 0 0 103 101  0.000000e+00  0.000000e+00  1.750814e+03  1.750814e+03 0.0 0.0 9.0
 2 -1 0 0 101   0  0.000000e+00  0.000000e+00 -3.582132e+03  3.582132e+03 0.0 0.0 9.0
22  1 1 2   0   0 -1.523661e+03  1.962144e+03 -1.252521e+03  2.782150e+03 0.0 0.0 9.0
 2  1 1 2 103   0  1.523661e+03 -1.962144e+03 -5.787961e+02  2.550795e+03 0.0022 0.0 9.0
#pdf 21 2 2.693560e-01 5.510972e-01 5000.0 5.245956e-02 1.359299e-03
</event>
<event>
4 7 1.0 5000.0 7.905138e-03 7.739137e-02
 2 -1 0 0 101   0  0.000000e+00  0.000000e+00  1.827573e+03  1.827573e+03 0.0 0.0 9.0
21 -1 0 0 103 101  0.000000e+00  0.000000e+00 -3.260121e+03  3.260121e+03 0.0 0.0 9.0
22  1 1 2   0   0 -1.263673e+03 -2.088349e+03 -7.097541e+02  2.542011e+03 0.0 0.0 9.0
 2  1 1 2 103   0  1.263673e+03  2.088349e+03 -7.227942e+02  2.545683e+03 0.0022 0.0 9.0
#pdf 2 21 2.811651e-01 5.015571e-01 5000.0 2.727862e-01 6.959303e-02
</event>
<event>
4 7 1.0 5000.0 7.905138e-03 7.739137e-02
21 -1 0 0 103 101  0.000000e+00  0.000000e+00  3.420531e+03  3.420531e+03 0.0 0.0 9.0
 2 -1 0 0 101   0  0.000000e+00  0.000000e+00 -1.921119e+03  1.921119e+03 0.0 0.0 9.0
22  1 1 2   0   0 -1.905439e+03  9.252120e+02 -7.545647e+02  2.248573e+03 0.0 0.0 9.0
 2  1 1 2 103   0  1.905439e+03 -9.252120e+02  2.253977e+03  3.093077e+03 0.0022 0.0 9.0
#pdf 21 2 5.262356e-01 2.955568e-01 5000.0 1.951826e-03 3.807119e-02
</event>
<event>
4 7 1.0 5000.0 7.905138e-03 7.739137e-02
21 -1 0 0 103 101  0.000000e+00  0.000000e+00  2.034166e+03  2.034166e+03 0.0 0.0 9.0
 2 -1 0 0 101   0  0.000000e+00  0.000000e+00 -3.100456e+03  3.100456e+03 0.0 0.0 9.0
22  1 1 2   0   0  2.100140e+03 -6.997609e+02 -1.745573e+03  2.819092e+03 0.0 0.0 9.0
 2  1 1 2 103   0 -2.100140e+03  6.997609e+02  6.792834e+02  2.315530e+03 0.0022 0.0 9.0
#pdf 21 2 3.129487e-01 4.769932e-01 5000.0 3.075272e-02 3.855907e-03
</event>
<event>
4 7 1.0 5000.0 7.905138e-03 7.739137e-02
21 -1 0 0 103 101  0.000000e+00  0.000000e+00  3.644829e+03  3.644829e+03 0.0 0.0 9.0
 2 -1 0 0 101   0  0.000000e+00  0.000000e+00 -1.659369e+03  1.659369e+03 0.0 0.0 9.0
 2  1 1 2 103   0 -2.300274e+03  3.449929e+02  1.314702e+02  2.329714e+03 0.0022 0.0 9.0
22  1 1 2   0   0  2.300274e+03 -3.449929e+02  1.853990e+03  2.974485e+03 0.0 0.0 9.0
#pdf 21 2 5.607429e-01 2.552875e-01 5000.0 1.180127e-03 6.249240e-02
</event>
<event>
4 7 1.0 5000.0 7.905138e-03 7.739137e-02
21 -1 0 0 103 101  0.000000e+00  0.000000e+00  2.404235e+03  2.404235e+03 0.0 0.0 9.0
 2 -1 0 0 101   0  0.000000e+00  0.000000e+00 -2.653256e+03  2.653256e+03 0.0 0.0 9.0
22  1 1 2   0   0  1.402005e+03 -1.640861e+03 -1.437976e+03  2.593418e+03 0.0 0.0 9.0
 2  1 1 2 103   0 -1.402005e+03  1.640861e+03  1.188954e+03  2.464073e+03 0.0022 0.0 9.0
#pdf 21 2 3.698822e-01 4.081933e-01 5000.0 1.525803e-02 9.448792e-03
</event>
<event>
4 7 1.0 5000.0 7.905138e-03 7.739137e-02
 2 -1 0 0 101   0  0.000000e+00  0.000000e+00  2.238475e+03  2.238475e+03 0.0 0.0 9.0
21 -1 0 0 103 101  0.000000e+00  0.000000e+00 -2.794153e+03  2.794153e+03 0.0 0.0 9.0
 2  1 1 2 103   0 -5.718913e+02 -2.254269e+03 -1.203200e+03  2.618488e+03 0.0022 0.0 9.0
22  1 1 2   0   0  5.718913e+02  2.254269e+03  6.475213e+02  2.414140e+03 0.0 0.0 9.0
#pdf 2 21 3.443807e-01 4.298697e-01 5000.0 1.977335e-01 1.174352e-01
</event>
<event>
4 7 1.0 5000.0 7.905138e-03 7.739137e-02
 2 -1 0 0 101   0  0.000000e+00  0.000000e+00  3.773832e+03  3.773832e+03 0.0 0.0 9.0
21 -1 0 0 103 101  0.000000e+00  0.000000e+00 -1.649038e+03  1.649038e+03 0.0 0.0 9.0
 2  1 1 2 103   0 -1.927323e+03 -1.450299e+03  1.754314e+03  2.982542e+03 0.0022 0.0 9.0
22  1 1 2   0   0  1.927323e+03  1.450299e+03  3.704801e+02  2.440327e+03 0.0 0.0 9.0
#pdf 2 21 5.805895e-01 2.536981e-01 5000.0 3.493756e-02 3.086510e-01
</event>
<event>
4 7 1.0 5000.0 7.905138e-03 7.739137e-02
 2 -1 0 0 101   0  0.000000e+00  0.000000e+00  1.811912e+03  1.811912e+03 0.0 0.0 9.0
21 -1 0 0 103 101  0.000000e+00  0.000000e+00 -3.460171e+03  3.460171e+03 0.0 0.0 9.0
22  1 1 2   0   0  2.482516e+03 -2.911820e+02 -6.685143e+02  2.587390e+03 0.0 0.0 9.0
 2  1 1 2 103   0 -2.482516e+03  2.911820e+02 -9.797450e+02  2.684693e+03 0.0022 0.0 9.0
#pdf 2 21 2.787556e-01 5.323340e-01 5000.0 2.758657e-01 5.405900e-02
</event>
<event>
4 7 1.0 5000.0 7.905138e-03 7.739137e-02
 2 -1 0 0 101   0  0.000000e+00  0.000000e+00  1.257960e+03  1.257960e+03 0.0 0.0 9.0
21 -1 0 0 103 101  0.000000e+00  0.000000e+00 -4.919569e+03  4.919569e+03 0.0 0.0 9.0
22  1 1 2   0   0 -4.818830e+02 -6.759918e+02  1.080900e+03  1.362909e+03 0.0 0.0 9.0
 2  1 1 2 103   0  4.818830e+02  6.759918e+02 -4.742508e+03  4.814620e+03 0.0022 0.0 9.0
#pdf 2 21 1.935323e-01 7.568567e-01 5000.0 3.909784e-01 3.784855e-03
</event>
<event>
4 7 1.0 5000.0 7.905138e-03 7.739137e-02
 2 -1 0 0 101   0  0.000000e+00  0.000000e+00  4.217027e+03  4.217027e+03 0.0 0.0 9.0
21 -1 0 0 103 101  0.000000e+00  0.000000e+00 -1.490677e+03  1.490677e+03 0.0 0.0 9.0
 2  1 1 2 103   0 -1.901446e+03  1.565849e+03  1.895660e+03  3.108200e+03 0.0022 0.0 9.0
22  1 1 2   0   0  1.901446e+03 -1.565849e+03  8.306904e+02  2.599505e+03 0.0 0.0 9.0
#pdf 2 21 6.487734e-01 2.293350e-01 5000.0 1.703283e-02 3.416406e-01
</event>
<event>
4 7 1.0 5000.0 7.905138e-03 7.739137e-02
 2 -1 0 0 101   0  0.000000e+00  0.000000e+00  5.050187e+03  5.050187e+03 0.0 0.0 9.0
21 -1 0 0 103 101  0.000000e+00  0.000000e+00 -1.181817e+03  1.181817e+03 0.0 0.0 9.0
22  1 1 2   0   0 -1.668690e+03 -1.086066e+03  1.284530e+02  1.995136e+03 0.0 0.0 9.0
 2  1 1 2 103   0  1.668690e+03  1.086066e+03  3.739918e+03  4.236868e+03 0.0022 0.0 9.0
#pdf 2 21 7.769519e-01 1.818179e-01 5000.0 2.657045e-03 4.069595e-01
</event>
<event>
4 7 1.0 5000.0 7.905138e-03 7.739137e-02
 2 -1 0 0 101   0  0.000000e+00  0.000000e+00  4.062106e+03  4.062106e+03 0.0 0.0 9.0
21 -1 0 0 103 101  0.000000e+00  0.000000e+00 -1.489021e+03  1.489021e+03 0.0 0.0 9.0
 2  1 1 2 103   0  1.527180e+03  1.821313e+03  1.999507e+03  3.106041e+03 0.0022 0.0 9.0
22  1 1 2   0   0 -1.527180e+03 -1.821313e+03  5.735775e+02  2.445087e+03 0.0 0.0 9.0
#pdf 2 21 6.249394e-01 2.290802e-01 5000.0 2.224120e-02 3.419897e-01
</event>
<event>
4 7 1.0 5000.0 7.905138e-03 7.739137e-02
 2 -1 0 0 101   0  0.000000e+00  0.000000e+00  2.619140e+03  2.619140e+03 0.0 0.0 9.0
21 -1 0 0 103 101  0.000000e+00  0.000000e+00 -2.420286e+03  2.420286e+03 0.0 0.0 9.0
22  1 1 2   0   0  1.109031e+03 -2.084132e+03  9.750448e+02  2.554265e+03 0.0 0.0 9.0
 2  1 1 2 103   0 -1.109031e+03  2.084132e+03 -7.761911e+02  2.485162e+03 0.0022 0.0 9.0
#pdf 2 21 4.029446e-01 3.723518e-01 5000.0 1.399554e-01 1.686274e-01
</event>
<event>
4 7 1.0 5000.0 7.905138e-03 7.739137e-02
 2 -1 0 0 101   0  0.000000e+00  0.000000e+00  3.005934e+03  3.005934e+03 0.0 0.0 9.0
21 -1 0 0 103 101  0.000000e+00  0.000000e+00 -1.958312e+03  1.958312e+03 0.0 0.0 9.0
22  1 1 2   0   0  1.298717e+03  2.041493e+03  3.402452e+02  2.443385e+03 0.0 0.0 9.0
 2  1 1 2 103   0 -1.298717e+03 -2.041493e+03  7.073773e+02  2.520862e+03 0.0022 0.0 9.0
#pdf 2 21 4.624514e-01 3.012787e-01 5000.0 9.356416e-02 2.476329e-01
</event>
<event>
4 7 1.0 5000.0 7.905138e-03 7.739137e-02
21 -1 0 0 103 101  0.000000e+00  0.000000e+00  1.849887e+03  1.849887e+03 0.0 0.0 9.0
 2 -1 0 0 101   0  0.000000e+00  0.000000e+00 -3.447521e+03  3.447521e+03 0.0 0.0 9.0
22  1 1 2   0   0 -6.781428e+02 -2.382729e+03 -2.847271e+02  2.493661e+03 0.0 0.0 9.0
 2  1 1 2 103   0  6.781428e+02  2.382729e+03 -1.312907e+03  2.803748e+03 0.0022 0.0 9.0
#pdf 21 2 2.845980e-01 5.303879e-01 5000.0 4.349680e-02 1.839834e-03
</event>
<event>
4 7 1.0 5000.0 7.905138e-03 7.739137e-02
 2 -1 0 0 101   0  0.000000e+00  0.000000e+00  3.193948e+03  3.193948e+03 0.0 0.0 9.0
21 -1 0 0 103 101  0.000000e+00  0.000000e+00 -2.029355e+03  2.029355e+03 0.0 0.0 9.0
22  1 1 2   0   0 -2.492196e+03 -4.739572e+02  8.022606e+02  2.660695e+03 0.0 0.0 9.0
 2  1 1 2 103   0  2.492196e+03  4.739572e+02  3.623330e+02  2.562608e+03 0.0022 0.0 9.0
#pdf 2 21 4.913767e-01 3.122084e-01 5000.0 7.536260e-02 2.344280e-01
</event>
<event>
4 7 1.0 5000.0 7.905138e-03 7.739137e-02
21 -1 0 0 103 101  0.000000e+00  0.000000e+00  3.628810e+03  3.628810e+03 0.0 0.0 9.0
 2 -1 0 0 101   0  0.000000e+00  0.000000e+00 -1.686039e+03  1.686039e+03 0.0 0.0 9.0
 2  1 1 2 103   0 -2.450290e+03 -2.243393e+02  6.994524e+02  2.558023e+03 0.0022 0.0 9.0
22  1 1 2   0   0  2.450290e+03  2.243393e+02  1.243319e+03  2.756826e+03 0.0 0.0 9.0
#pdf 21 2 5.582785e-01 2.593905e-01 5000.0 1.224195e-03 5.935937e-02
</event>
<event>
4 7 1.0 5000.0 7.905138e-03 7.739137e-02
21 -1 0 0 103 101  0.000000e+00  0.000000e+00  1.409850e+03  1.409850e+03 0.0 0.0 9.0
 2 -1 0 0 101   0  0.000000e+00  0.000000e+00 -4.491384e+03  4.491384e+03 0.0 0.0 9.0
 2  1 1 2 103   0  1.659859e+03  1.318886e+02  6.715125e+02  1.795399e+03 0.0022 0.0 9.0
22  1 1 2   0   0 -1.659859e+03 -1.318886e+02 -3.753046e+03  4.105835e+03 0.0 0.0 9.0
#pdf 21 2 2.169000e-01 6.909821e-01 5000.0 1.012164e-01 1.294862e-04
</event>
<event>
4 7 1.0 5000.0 7.905138e-03 7.739137e-02
21 -1 0 0 103 101  0.000000e+00  0.000000e+00  2.450956e+03  2.450956e+03 0.0 0.0 9.0
 2 -1 0 0 101   0  0.000000e+00  0.000000e+00 -2.556659e+03  2.556659e+03 0.0 0.0 9.0
 2  1 1 2 103   0  1.478012e+03 -6.519655e+01 -2.072581e+03  2.546441e+03 0.0022 0.0 9.0
22  1 1 2   0   0 -1.478012e+03  6.519655e+01  1.966879e+03  2.461175e+03 0.0 0.0 9.0
#pdf 21 2 3.770702e-01 3.933322e-01 5000.0 1.397444e-02 1.139569e-02
</event>
<event>
4 7 1.0 5000.0 7.905138e-03 7.739137e-02
 2 -1 0 0 101   0  0.000000e+00  0.000000e+00  4.723048e+03  4.723048e+03 0.0 0.0 9.0
21 -1 0 0 103 101  0.000000e+00  0.000000e+00 -1.285225e+03  1.285225e+03 0.0 0.0 9.0
 2  1 1 2 103   0 -1.331323e+03  1.828152e+03  2.910869e+03  3.686153e+03 0.0022 0.0 9.0
22  1 1 2   0   0  1.331323e+03 -1.828152e+03  5.269538e+02  2.322120e+03 0.0 0.0 9.0
#pdf 2 21 7.266228e-01 1.977269e-01 5000.0 6.120205e-03 3.851734e-01
</event>
<event>
4 7 1.0 5000.0 7.905138e-03 7.739137e-02
21 -1 0 0 103 101  0.000000e+00  0.000000e+00  2.976436e+03  2.976436e+03 0.0 0.0 9.0
 2 -1 0 0 101   0  0.000000e+00  0.000000e+00 -2.025923e+03  2.025923e+03 0.0 0.0 9.0
 2  1 1 2 103   0 -1.076879e+03 -1.718773e+03  1.885206e+03  2.769088e+03 0.0022 0.0 9.0
22  1 1 2   0   0  1.076879e+03  1.718773e+03 -9.346930e+02  2.233271e+03 0.0 0.0 9.0
#pdf 21 2 4.579132e-01 3.116805e-01 5000.0 4.971896e-03 3.123963e-02
</event>
<event>
4 7 1.0 5000.0 7.905138e-03 7.739137e-02
 2 -1 0 0 101   0  0.000000e+00  0.000000e+00  2.032764e+03  2.032764e+03 0.0 0.0 9.0
21 -1 0 0 103 101  0.000000e+00  0.000000e+00 -3.208858e+03  3.208858e+03 0.0 0.0 9.0
 2  1 1 2 103   0 -1.390006e+03  2.008812e+03 -1.352802e+03  2.792404e+03 0.0022 0.0 9.0
22  1 1 2   0   0  1.390006e+03 -2.008812e+03  1.767079e+02  2.449218e+03 0.0 0.0 9.0
#pdf 2 21 3.127329e-01 4.936705e-01 5000.0 2.338043e-01 7.403412e-02
</event>
<event>
4 7 1.0 5000.0 7.905138e-03 7.739137e-02
21 -1 0 0 103 101  0.000000e+00  0.000000e+00  1.600913e+03  1.600913e+03 0.0 0.0 9.0
 2 -1 0 0 101   0  0.000000e+00  0.000000e+00 -3.935153e+03  3.935153e+03 0.0 0.0 9.0
22  1 1 2   0   0 -8.047987e+02 -8.816464e+02  1.267811e+03  1.741363e+03 0.0 0.0 9.0
 2  1 1 2 103   0  8.047987e+02  8.816464e+02 -3.602050e+03  3.794703e+03 0.0022 0.0 9.0
#pdf 21 2 2.462943e-01 6.054081e-01 5000.0 6.981663e-02 5.886272e-04
</event>
<event>
4 7 1.0 5000.0 7.905138e-03 7.739137e-02
 2 -1 0 0 101   0  0.000000e+00  0.000000e+00  1.773156e+03  1.773156e+03 0.0 0.0 9.0
21 -1 0 0 103 101  0.000000e+00  0.000000e+00 -3.302104e+03  3.302104e+03 0.0 0.0 9.0
22  1 1 2   0   0 -9.459884e+02  3.475040e+02 -3.071536e+03  3.232644e+03 0.0 0.0 9.0
 2  1 1 2 103   0  9.459884e+02 -3.475040e+02  1.542589e+03  1.842616e+03 0.0022 0.0 9.0
#pdf 2 21 2.727933e-01 5.080160e-01 5000.0 2.835554e-01 6.609865e-02
</event>
<event>
4 7 1.0 5000.0 7.905138e-03 7.739137e-02
21 -1 0 0 103 101  0.000000e+00  0.000000e+00  2.771687e+03  2.771687e+03 0.0 0.0 9.0
 2 -1 0 0 101   0  0.000000e+00  0.000000e+00 -2.370945e+03  2.370945e+03 0.0 0.0 9.0
22  1 1 2   0   0  6.242351e+02 -1.491786e+03  2.195513e+03  2.726788e+03 0.0 0.0 9.0
 2  1 1 2 103   0 -6.242351e+02  1.491786e+03 -1.794771e+03  2.415843e+03 0.0022 0.0 9.0
#pdf 21 2 4.264133e-01 3.647607e-01 5000.0 7.488664e-03 1.626885e-02
</event>
<event>
4 7 1.0 5000.0 7.905138e-03 7.739137e-02
 2 -1 0 0 101   0  0.000000e+00  0.000000e+00  3.586650e+03  3.586650e+03 0.0 0.0 9.0
21 -1 0 0 103 101  0.000000e+00  0.000000e+00 -1.745376e+03  1.745376e+03 0.0 0.0 9.0
22  1 1 2   0   0  1.496886e+03 -1.910239e+03  2.721610e+02  2.442079e+03 0.0 0.0 9.0
 2  1 1 2 103   0 -1.496886e+03  1.910239e+03  1.569113e+03  2.889947e+03 0.0022 0.0 9.0
#pdf 2 21 5.517923e-01 2.685194e-01 5000.0 4.560867e-02 2.891195e-01
</event>
<event>
4 7 1.0 5000.0 7.905138e-03 7.739137e-02
21 -1 0 0 103 101  0.000000e+00  0.000000e+00  4.358445e+03  4.358445e+03 0.0 0.0 9.0
 2 -1 0 0 101   0  0.000000e+00  0.000000e+00 -1.388183e+03  1.388183e+03 0.0 0.0 9.0
 2  1 1 2 103   0  2.254053e+03 -2.477034e+02  3.718966e+02  2.297916e+03 0.0022 0.0 9.0
22  1 1 2   0   0 -2.254053e+03  2.477034e+02  2.598365e+03  3.448712e+03 0.0 0.0 9.0
#pdf 21 2 6.705300e-01 2.135666e-01 5000.0 1.909638e-04 1.056199e-01
</event>
<event>
4 7 1.0 5000.0 7.905138e-03 7.739137e-02
21 -1 0 0 103 101  0.000000e+00  0.000000e+00  3.400789e+03  3.400789e+03 0.0 0.0 9.0
 2 -1 0 0 101   0  0.000000e+00  0.000000e+00 -1.864415e+03  1.864415e+03 0.0 0.0 9.0
 2  1 1 2 103   0  9.908772e+01 -7.495907e+02  3.279298e+03  3.365338e+03 0.0022 0.0 9.0
22  1 1 2   0   0 -9.908772e+01  7.495907e+02 -1.742924e+03  1.899866e+03 0.0 0.0 9.0
#pdf 21 2 5.231983e-01 2.868331e-01 5000.0 2.037463e-03 4.233137e-02
</event>
<event>
4 7 1.0 5000.0 7.905138e-03 7.739137e-02
21 -1 0 0 103 101  0.000000e+00  0.000000e+00  4.226125e+03  4.226125e+03 0.0 0.0 9.0
 2 -1 0 0 101   0  0.000000e+00  0.000000e+00 -1.464647e+03  1.464647e+03 0.0 0.0 9.0
22  1 1 2   0   0  1.623080e+03  1.844678e+03  1.827445e+03  3.062152e+03 0.0 0.0 9.0
 2  1 1 2 103   0 -1.623080e+03 -1.844678e+03  9.340334e+02  2.628620e+03 0.0022 0.0 9.0
#pdf 21 2 6.501731e-01 2.253303e-01 5000.0 2.761674e-04 9.086216e-02
</event>
<event>
4 7 1.0 5000.0 7.905138e-03 7.739137e-02
 2 -1 0 0 101   0  0.000000e+00  0.000000e+00  2.774556e+03  2.774556e+03 0.0 0.0 9.0
21 -1 0 0 103 101  0.000000e+00  0.000000e+00 -2.228850e+03  2.228850e+03 0.0 0.0 9.0
 2  1 1 2 103   0  4.468412e+02 -2.219494e+03 -7.620338e+02  2.388831e+03 0.0022 0.0 9.0
22  1 1 2   0   0 -4.468412e+02  2.219494e+03  1.307739e+03  2.614575e+03 0.0 0.0 9.0
#pdf 2 21 4.268548e-01 3.429001e-01 5000.0 1.198259e-01 1.993492e-01
</event>
<event>
4 7 1.0 5000.0 7.905138e-03 7.739137e-02
 2 -1 0 0 101   0  0.000000e+00  0.000000e+00  2.999119e+03  2.999119e+03 0.0 0.0 9.0
21 -1 0 0 103 101  0.000000e+00  0.000000e+00 -2.048494e+03  2.048494e+03 0.0 0.0 9.0
22  1 1 2   0   0 -9.037898e+02  2.301012e+03  2.926396e+02  2.489404e+03 0.0 0.0 9.0
 2  1 1 2 103   0  9.037898e+02 -2.301012e+03  6.579853e+02  2.558210e+03 0.0022 0.0 9.0
#pdf 2 21 4.614030e-01 3.151530e-01 5000.0 9.427512e-02 2.309372e-01
</event>
<event>
4 7 1.0 5000.0 7.905138e-03 7.739137e-02
21 -1 0 0 103 101  0.000000e+00  0.000000e+00  1.390196e+03  1.390196e+03 0.0 0.0 9.0
 2 -1 0 0 101   0  0.000000e+00  0.000000e+00 -4.632190e+03  4.632190e+03 0.0 0.0 9.0
 2  1 1 2 103   0  8.625853e+02  2.187872e+03 -4.897845e+02  2.402234e+03 0.0022 0.0 9.0
22  1 1 2   0   0 -8.625853e+02 -2.187872e+03 -2.752210e+03  3.620152e+03 0.0 0.0 9.0
#pdf 21 2 2.138762e-01 7.126447e-01 5000.0 1.052036e-01 8.368204e-05
</event>
<event>
4 7 1.0 5000.0 7.905138e-03 7.739137e-02
21 -1 0 0 103 101  0.000000e+00  0.000000e+00  2.477107e+03  2.477107e+03 0.0 0.0 9.0
 2 -1 0 0 101   0  0.000000e+00  0.000000e+00 -2.503670e+03  2.503670e+03 0.0 0.0 9.0
22  1 1 2   0   0  8.089180e+02 -2.353376e+03  8.229198e+01  2.489879e+03 0.0 0.0 9.0
 2  1 1 2 103   0 -8.089180e+02  2.353376e+03 -1.088548e+02  2.490899e+03 0.0022 0.0 9.0
#pdf 21 2 3.810935e-01 3.851800e-01 5000.0 1.329309e-02 1.262812e-02
</event>
<event>
4 7 1.0 5000.0 7.905138e-03 7.739137e-02
21 -1 0 0 103 101  0.000000e+00  0.000000e+00  3.668388e+03  3.668388e+03 0.0 0.0 9.0
 2 -1 0 0 101   0  0.000000e+00  0.000000e+00 -1.699188e+03  1.699188e+03 0.0 0.0 9.0
22  1 1 2   0   0 -1.548157e+03  1.069464e+03  2.748552e+03  3.330929e+03 0.0 0.0 9.0
 2  1 1 2 103   0  1.548157e+03 -1.069464e+03 -7.793517e+02  2.036648e+03 0.0022 0.0 9.0
#pdf 21 2 5.643674e-01 2.614135e-01 5000.0 1.117260e-03 5.787599e-02
</event>
<event>
4 7 1.0 5000.0 7.905138e-03 7.739137e-02
 2 -1 0 0 101   0  0.000000e+00  0.000000e+00  2.865904e+03  2.865904e+03 0.0 0.0 9.0
21 -1 0 0 103 101  0.000000e+00  0.000000e+00 -2.130810e+03  2.130810e+03 0.0 0.0 9.0
22  1 1 2   0   0 -4.403454e+02 -1.081074e+03  2.569596e+03  2.822312e+03 0.0 0.0 9.0
 2  1 1 2 103   0  4.403454e+02  1.081074e+03 -1.834502e+03  2.174402e+03 0.0022 0.0 9.0
#pdf 2 21 4.409083e-01 3.278170e-01 5000.0 1.089514e-01 2.162132e-01
</event>
<event>
4 7 1.0 5000.0 7.905138e-03 7.739137e-02
21 -1 0 0 103 101  0.000000e+00  0.000000e+00  3.170306e+03  3.170306e+03 0.0 0.0 9.0
 2 -1 0 0 101   0  0.000000e+00  0.000000e+00 -2.036880e+03  2.036880e+03 0.0 0.0 9.0
22  1 1 2   0   0  1.762845e+03  1.153443e+02  2.438223e+03  3.010956e+03 0.0 0.0 9.0
 2  1 1 2 103   0 -1.762845e+03 -1.153443e+02 -1.304798e+03  2.196229e+03 0.0022 0.0 9.0
#pdf 21 2 4.877393e-01 3.133662e-01 5000.0 3.333231e-03 3.059407e-02
</event>
<event>
4 7 1.0 5000.0 7.905138e-03 7.739137e-02
21 -1 0 0 103 101  0.000000e+00  0.000000e+00  1.653263e+03  1.653263e+03 0.0 0.0 9.0
 2 -1 0 0 101   0  0.000000e+00  0.000000e+00 -3.436030e+03  3.436030e+03 0.0 0.0 9.0
22  1 1 2   0   0  3.298805e+02 -1.451471e+03  1.096011e+03  1.848467e+03 0.0 0.0 9.0
 2  1 1 2 103   0 -3.298805e+02  1.451471e+03 -2.878778e+03  3.240826e+03 0.0022 0.0 9.0
#pdf 21 2 2.543481e-01 5.286200e-01 5000.0 6.323092e-02 1.886861e-03
</event>
<event>
4 7 1.0 5000.0 7.905138e-03 7.739137e-02
21 -1 0 0 103 101  0.000000e+00  0.000000e+00  2.137088e+03  2.137088e+03 0.0 0.0 9.0
 2 -1 0 0 101   0  0.000000e+00  0.000000e+00 -2.878268e+03  2.878268e+03 0.0 0.0 9.0
 2  1 1 2 103   0  1.382834e+03 -4.908134e+02 -2.392284e+03  2.806448e+03 0.0022 0.0 9.0
22  1 1 2   0   0 -1.382834e+03  4.908134e+02  1.651105e+03  2.208908e+03 0.0 0.0 9.0
#pdf 21 2 3.287828e-01 4.428104e-01 5000.0 2.532070e-02 6.062841e-03
</event>
<event>
4 7 1.0 5000.0 7.905138e-03 7.739137e-02
21 -1 0 0 103 101  0.000000e+00  0.000000e+00  2.480975e+03  2.480975e+03 0.0 0.0 9.0
 2 -1 0 0 101   0  0.000000e+00  0.000000e+00 -2.447004e+03  2.447004e+03 0.0 0.0 9.0
22  1 1 2   0   0  1.475829e+03 -9.039073e+02 -1.736862e+03  2.451899e+03 0.0 0.0 9.0
 2  1 1 2 103   0 -1.475829e+03  9.039073e+02  1.770833e+03  2.476079e+03 0.0022 0.0 9.0
#pdf 21 2 3.816884e-01 3.764621e-01 5000.0 1.319449e-02 1.407952e-02
</event>
<event>
4 7 1.0 5000.0 7.905138e-03 7.739137e-02
 2 -1 0 0 101   0  0.000000e+00  0.000000e+00  2.789067e+03  2.789067e+03 0.0 0.0 9.0
21 -1 0 0 103 101  0.000000e+00  0.000000e+00 -2.250330e+03  2.250330e+03 0.0 0.0 9.0
 2  1 1 2 103   0 -7.562518e+02 -4.806150e+02  2.622386e+03  2.771248e+03 0.0022 0.0 9.0
22  1 1 2   0   0  7.562518e+02  4.806150e+02 -2.083649e+03  2.268149e+03 0.0 0.0 9.0
#pdf 2 21 4.290872e-01 3.462046e-01 5000.0 1.180523e-01 1.957531e-01
</event>
<event>
4 7 1.0 5000.0 7.905138e-03 7.739137e-02
 2 -1 0 0 101   0  0.000000e+00  0.000000e+00  2.782745e+03  2.782745e+03 0.0 0.0 9.0
21 -1 0 0 103 101  0.000000e+00  0.000000e+00 -2.321202e+03  2.321202e+03 0.0 0.0 9.0
22  1 1 2   0   0  2.360826e+03  2.311924e+01  1.175537e+03  2.637408e+03 0.0 0.0 9.0
 2  1 1 2 103   0 -2.360826e+03 -2.311924e+01 -7.139934e+02  2.466540e+03 0.0022 0.0 9.0
#pdf 2 21 4.281147e-01 3.571080e-01 5000.0 1.188225e-01 1.841553e-01
</event>
<event>
4 7 1.0 5000.0 7.905138e-03 7.739137e-02
 2 -1 0 0 101   0  0.000000e+00  0.000000e+00  2.736952e+03  2.736952e+03 0.0 0.0 9.0
21 -1 0 0 103 101  0.000000e+00  0.000000e+00 -2.426628e+03  2.426628e+03 0.0 0.0 9.0
 2  1 1 2 103   0 -3.382094e+01  2.413717e+03 -7.489076e+02  2.527456e+03 0.0022 0.0 9.0
22  1 1 2   0   0  3.382094e+01 -2.413717e+03  1.059231e+03  2.636123e+03 0.0 0.0 9.0
#pdf 2 21 4.210695e-01 3.733274e-01 5000.0 1.245103e-01 1.676652e-01
</event>
<event>
4 7 1.0 5000.0 7.905138e-03 7.739137e-02
21 -1 0 0 103 101  0.000000e+00  0.000000e+00  4.193939e+03  4.193939e+03 0.0 0.0 9.0
 2 -1 0 0 101   0  0.000000e+00  0.000000e+00 -1.505213e+03  1.505213e+03 0.0 0.0 9.0
22  1 1 2   0   0 -2.496153e+03  2.744714e+02  1.251829e+03  2.805920e+03 0.0 0.0 9.0
 2  1 1 2 103   0  2.496153e+03 -2.744714e+02  1.436898e+03  2.893232e+03 0.0022 0.0 9.0
#pdf 21 2 6.452214e-01 2.315712e-01 5000.0 3.012581e-04 8.397411e-02
</event>
<event>
4 7 1.0 5000.0 7.905138e-03 7.739137e-02
21 -1 0 0 103 101  0.000000e+00  0.000000e+00  2.777867e+03  2.777867e+03 0.0 0.0 9.0
 2 -1 0 0 101   0  0.000000e+00  0.000000e+00 -2.244721e+03  2.244721e+03 0.0 0.0 9.0
 2  1 1 2 103   0 -1.914053e+03  9.696295e+02  1.551233e+03  2.647660e+03 0.0022 0.0 9.0
22  1 1 2   0   0  1.914053e+03 -9.696295e+02 -1.018087e+03  2.374928e+03 0.0 0.0 9.0
#pdf 21 2 4.273642e-01 3.453417e-01 5000.0 7.397301e-03 2.066778e-02
</event>
<event>
4 7 1.0 5000.0 7.905138e-03 7.739137e-02
21 -1 0 0 103 101  0.000000e+00  0.000000e+00  1.919911e+03  1.919911e+03 0.0 0.0 9.0
 2 -1 0 0 101   0  0.000000e+00  0.000000e+00 -3.412405e+03  3.412405e+03 0.0 0.0 9.0
 2  1 1 2 103   0  7.895851e+02 -1.847904e+03  9.051011e+02  2.203952e+03 0.0022 0.0 9.0
22  1 1 2   0   0 -7.895851e+02  1.847904e+03 -2.397596e+03  3.128364e+03 0.0 0.0 9.0
#pdf 21 2 2.953709e-01 5.249854e-01 5000.0 3.815853e-02 1.986660e-03
</event>
<event>
4 7 1.0 5000.0 7.905138e-03 7.739137e-02
21 -1 0 0 103 101  0.000000e+00  0.000000e+00  3.503555e+03  3.503555e+03 0.0 0.0 9.0
 2 -1 0 0 101   0  0.000000e+00  0.000000e+00 -1.640380e+03  1.640380e+03 0.0 0.0 9.0
22  1 1 2   0   0 -7.046695e+02 -1.634335e+03  2.654689e+03  3.196089e+03 0.0 0.0 9.0
 2  1 1 2 103   0  7.046695e+02  1.634335e+03 -7.915140e+02  1.947846e+03 0.0022 0.0 9.0
#pdf 21 2 5.390085e-01 2.523661e-01 5000.0 1.622927e-03 6.481211e-02
</event>
<event>
4 7 1.0 5000.0 7.905138e-03 7.739137e-02
21 -1 0 0 103 101  0.000000e+00  0.000000e+00  2.550586e+03  2.550586e+03 0.0 0.0 9.0
 2 -1 0 0 101   0  0.000000e+00  0.000000e+00 -2.416687e+03  2.416687e+03 0.0 0.0 9.0
 2  1 1 2 103   0 -1.090151e+03 -1.735346e+03 -1.335028e+03  2.445845e+03 0.0022 0.0 9.0
22  1 1 2   0   0  1.090151e+03  1.735346e+03  1.468927e+03  2.521429e+03 0.0 0.0 9.0
#pdf 21 2 3.923978e-01 3.717981e-01 5000.0 1.153032e-02 1.490231e-02
</event>
<event>
4 7 1.0 5000.0 7.905138e-03 7.739137e-02
 2 -1 0 0 101   0  0.000000e+00  0.000000e+00  2.485545e+03  2.485545e+03 0.0 0.0 9.0
21 -1 0 0 103 101  0.000000e+00  0.000000e+00 -2.528977e+03  2.528977e+03 0.0 0.0 9.0
22  1 1 2   0   0  2.254218e+03 -8.537375e+02 -7.113200e+02  2.513234e+03 0.0 0.0 9.0
 2  1 1 2 103   0 -2.254218e+03  8.537375e+02  6.678879e+02  2.501288e+03 0.0022 0.0 9.0
#pdf 2 21 3.823915e-01 3.890734e-01 5000.0 1.588663e-01 1.525583e-01
</event>
<event>
4 7 1.0 5000.0 7.905138e-03 7.739137e-02
 2 -1 0 0 101   0  0.000000e+00  0.000000e+00  1.772028e+03  1.772028e+03 0.0 0.0 9.0
21 -1 0 0 103 101  0.000000e+00  0.000000e+00 -3.406114e+03  3.406114e+03 0.0 0.0 9.0
 2  1 1 2 103   0  4.651527e+02  2.066726e+03 -2.128232e+03  3.002848e+03 0.0022 0.0 9.0
22  1 1 2   0   0 -4.651527e+02 -2.066726e+03  4.941469e+02  2.175294e+03 0.0 0.0 9.0
#pdf 2 21 2.726197e-01 5.240175e-01 5000.0 2.837806e-01 5.798315e-02
</event>
<event>
4 7 1.0 5000.0 7.905138e-03 7.739137e-02
21 -1 0 0 103 101  0.000000e+00  0.000000e+00  1.367847e+03  1.367847e+03 0.0 0.0 9.0
 2 -1 0 0 101   0  0.000000e+00  0.000000e+00 -3.700394e+03  3.700394e+03 0.0 0.0 9.0
22  1 1 2   0   0 -9.496914e+02  4.454089e+02 -3.408099e+03  3.565872e+03 0.0 0.0 9.0
 2  1 1 2 103   0  9.496914e+02 -4.454089e+02  1.075552e+03  1.502369e+03 0.0022 0.0 9.0
#pdf 21 2 2.104380e-01 5.692914e-01 5000.0 1.099060e-01 1.036106e-03
</event>
<event>
4 7 1.0 5000.0 7.905138e-03 7.739137e-02
 2 -1 0 0 101   0  0.000000e+00  0.000000e+00  1.916337e+03  1.916337e+03 0.0 0.0 9.0
21 -1 0 0 103 101  0.000000e+00  0.000000e+00 -3.296356e+03  3.296356e+03 0.0 0.0 9.0
22  1 1 2   0   0  5.010349e+02 -2.986375e+02 -3.225197e+03  3.277517e+03 0.0 0.0 9.0
 2  1 1 2 103   0 -5.010349e+02  2.986375e+02  1.845179e+03  1.935176e+03 0.0022 0.0 9.0
#pdf 2 21 2.948211e-01 5.071316e-01 5000.0 2.555760e-01 6.656963e-02
</event>
<event>
4 7 1.0 5000.0 7.905138e-03 7.739137e-02
 2 -1 0 0 101   0  0.000000e+00  0.000000e+00  3.886405e+03  3.886405e+03 0.0 0.0 9.0
21 -1 0 0 103 101  0.000000e+00  0.000000e+00 -1.593762e+03  1.593762e+03 0.0 0.0 9.0
22  1 1 2   0   0  4.232719e+02 -1.046942e+03 -1.295454e+03  1.718560e+03 0.0 0.0 9.0
 2  1 1 2 103   0 -4.232719e+02  1.046942e+03  3.588097e+03  3.761607e+03 0.0022 0.0 9.0
#pdf 2 21 5.979084e-01 2.451942e-01 5000.0 2.947633e-02 3.200927e-01
</event>
<event>
4 7 1.0 5000.0 7.905138e-03 7.739137e-02
 2 -1 0 0 101   0  0.000000e+00  0.000000e+00  2.494871e+03  2.494871e+03 0.0 0.0 9.0
21 -1 0 0 103 101  0.000000e+00  0.000000e+00 -2.564257e+03  2.564257e+03 0.0 0.0 9.0
 2  1 1 2 103   0  2.251464e+03 -6.498609e+02 -9.866645e+02  2.542620e+03 0.0022 0.0 9.0
22  1 1 2   0   0 -2.251464e+03  6.498609e+02  9.172794e+02  2.516508e+03 0.0 0.0 9.0
#pdf 2 21 3.838264e-01 3.945010e-01 5000.0 1.574982e-01 1.475511e-01
</event>
<event>
4 7 1.0 5000.0 7.905138e-03 7.739137e-02
 2 -1 0 0 101   0  0.000000e+00  0.000000e+00  3.303199e+03  3.303199e+03 0.0 0.0 9.0
21 -1 0 0 103 101  0.000000e+00  0.000000e+00 -1.866233e+03  1.866233e+03 0.0 0.0 9.0
 2  1 1 2 103   0 -1.218558e+03  2.147216e+03  9.921775e+02  2.660796e+03 0.0022 0.0 9.0
22  1 1 2   0   0  1.218558e+03 -2.147216e+03  4.447892e+02  2.508636e+03 0.0 0.0 9.0
#pdf 2 21 5.081845e-01 2.871127e-01 5000.0 6.600914e-02 2.652367e-01
</event>
<event>
4 7 1.0 5000.0 7.905138e-03 7.739137e-02
 2 -1 0 0 101   0  0.000000e+00  0.000000e+00  4.016007e+03  4.016007e+03 0.0 0.0 9.0
21 -1 0 0 103 101  0.000000e+00  0.000000e+00 -1.555329e+03  1.555329e+03 0.0 0.0 9.0
 2  1 1 2 103   0  3.992986e+02  2.078530e+03  2.711751e+03  3.439960e+03 0.0022 0.0 9.0
22  1 1 2   0   0 -3.992986e+02 -2.078530e+03 -2.510723e+02  2.131376e+03 0.0 0.0 9.0
#pdf 2 21 6.178473e-01 2.392813e-01 5000.0 2.399733e-02 3.280414e-01
</event>
<event>
4 7 1.0 5000.0 7.905138e-03 7.739137e-02
 2 -1 0 0 101   0  0.000000e+00  0.000000e+00  2.812709e+03  2.812709e+03 0.0 0.0 9.0
21 -1 0 0 103 101  0.000000e+00  0.000000e+00 -2.227059e+03  2.227059e+03 0.0 0.0 9.0
 2  1 1 2 103   0 -3.619337e+02 -1.377554e+03 -1.779226e+03  2.279100e+03 0.0022 0.0 9.0
22  1 1 2   0   0  3.619337e+02  1.377554e+03  2.364876e+03  2.760668e+03 0.0 0.0 9.0
#pdf 2 21 4.327245e-01 3.426245e-01 5000.0 1.152030e-01 1.996507e-01
</event>
<event>
4 7 1.0 5000.0 7.905138e-03 7.739137e-02
21 -1 0 0 103 101  0.000000e+00  0.000000e+00  3.415545e+03  3.415545e+03 0.0 0.0 9.0
 2 -1 0 0 101   0  0.000000e+00  0.000000e+00 -1.857575e+03  1.857575e+03 0.0 0.0 9.0
22  1 1 2   0   0 -1.427275e+03 -1.463169e+03 -7.617555e+02  2.181341e+03 0.0 0.0 9.0
 2  1 1 2 103   0  1.427275e+03  1.463169e+03  2.319725e+03  3.091780e+03 0.0022 0.0 9.0
#pdf 21 2 5.254685e-01 2.857808e-01 5000.0 1.973132e-03 4.287528e-02
</event>
<event>
4 7 1.0 5000.0 7.905138e-03 7.739137e-02
21 -1 0 0 103 101  0.000000e+00  0.000000e+00  2.894142e+03  2.894142e+03 0.0 0.0 9.0
 2 -1 0 0 101   0  0.000000e+00  0.000000e+00 -2.080829e+03  2.080829e+03 0.0 0.0 9.0
 2  1 1 2 103   0 -8.272743e+02 -8.390812e+01  2.746992e+03  2.870085e+03 0.0022 0.0 9.0
22  1 1 2   0   0  8.272743e+02  8.390812e+01 -1.933680e+03  2.104885e+03 0.0 0.0 9.0
#pdf 21 2 4.452525e-01 3.201275e-01 5000.0 5.867736e-03 2.814888e-02
</event>
<event>
4 7 1.0 5000.0 7.905138e-03 7.739137e-02
 2 -1 0 0 101   0  0.000000e+00  0.000000e+00  4.481208e+03  4.481208e+03 0.0 0.0 9.0
21 -1 0 0 103 101  0.000000e+00  0.000000e+00 -1.393489e+03  1.393489e+03 0.0 0.0 9.0
 2  1 1 2 103   0 -1.975157e+03  9.726246e+02  2.933320e+03  3.667644e+03 0.0022 0.0 9.0
22  1 1 2   0   0  1.975157e+03 -9.726246e+02  1.543992e+02  2.207053e+03 0.0 0.0 9.0
#pdf 2 21 6.894166e-01 2.143829e-01 5000.0 1.031831e-02 3.621349e-01
</event>
<event>
4 7 1.0 5000.0 7.905138e-03 7.739137e-02
21 -1 0 0 103 101  0.000000e+00  0.000000e+00  3.441747e+03  3.441747e+03 0.0 0.0 9.0
 2 -1 0 0 101   0  0.000000e+00  0.000000e+00 -1.824084e+03  1.824084e+03 0.0 0.0 9.0
 2  1 1 2 103   0 -1.550697e+03 -1.281174e+03 -7.610576e+02  2.150646e+03 0.0022 0.0 9.0
22  1 1 2   0   0  1.550697e+03  1.281174e+03  2.378721e+03  3.115186e+03 0.0 0.0 9.0
#pdf 21 2 5.294996e-01 2.806283e-01 5000.0 1.863350e-03 4.566977e-02
</event>
<event>
4 7 1.0 5000.0 7.905138e-03 7.739137e-02
21 -1 0 0 103 101  0.000000e+00  0.000000e+00  1.996694e+03  1.996694e+03 0.0 0.0 9.0
 2 -1 0 0 101   0  0.000000e+00  0.000000e+00 -3.354016e+03  3.354016e+03 0.0 0.0 9.0
22  1 1 2   0   0 -2.227809e+03 -9.455472e+02  2.687067e+02  2.435035e+03 0.0 0.0 9.0
 2  1 1 2 103   0  2.227809e+03  9.455472e+02 -1.626029e+03  2.915675e+03 0.0022 0.0 9.0
#pdf 21 2 3.071837e-01 5.160024e-01 5000.0 3.302078e-02 2.255727e-03
</event>
<event>
4 7 1.0 5000.0 7.905138e-03 7.739137e-02
21 -1 0 0 103 101  0.000000e+00  0.000000e+00  2.299195e+03  2.299195e+03 0.0 0.0 9.0
 2 -1 0 0 101   0  0.000000e+00  0.000000e+00 -2.810208e+03  2.810208e+03 0.0 0.0 9.0
22  1 1 2   0   0  2.012745e+03  1.531949e+03 -2.833007e+00  2.529431e+03 0.0 0.0 9.0
 2  1 1 2 103   0 -2.012745e+03 -1.531949e+03 -5.081802e+02  2.579973e+03 0.0022 0.0 9.0
#pdf 21 2 3.537223e-01 4.323397e-01 5000.0 1.863947e-02 6.940369e-03
</event>
<event>
4 7 1.0 5000.0 7.905138e-03 7.739137e-02
21 -1 0 0 103 101  0.000000e+00  0.000000e+00  3.096985e+03  3.096985e+03 0.0 0.0 9.0
 2 -1 0 0 101   0  0.000000e+00  0.000000e+00 -2.026518e+03  2.026518e+03 0.0 0.0 9.0
22  1 1 2   0   0  4.056442e+02  2.459761e+03  7.880526e+02  2.614574e+03 0.0 0.0 9.0
 2  1 1 2 103   0 -4.056442e+02 -2.459761e+03  2.824135e+02  2.508929e+03 0.0022 0.0 9.0
#pdf 21 2 4.764592e-01 3.117721e-01 5000.0 3.883750e-03 3.120422e-02
</event>
<event>
4 7 1.0 5000.0 7.905138e-03 7.739137e-02
 2 -1 0 0 101   0  0.000000e+00  0.000000e+00  4.696395e+03  4.696395e+03 0.0 0.0 9.0
21 -1 0 0 103 101  0.000000e+00  0.000000e+00 -1.340069e+03  1.340069e+03 0.0 0.0 9.0
22  1 1 2   0   0 -4.933835e+02 -2.214128e+03  2.967071e+03  3.734876e+03 0.0 0.0 9.0
 2  1 1 2 103   0  4.933835e+02  2.214128e+03  3.892550e+02  2.301588e+03 0.0022 0.0 9.0
#pdf 2 21 7.225223e-01 2.061645e-01 5000.0 6.504393e-03 3.735388e-01
</event>
<event>
4 7 1.0 5000.0 7.905138e-03 7.739137e-02
21 -1 0 0 103 101  0.000000e+00  0.000000e+00  2.860438e+03  2.860438e+03 0.0 0.0 9.0
 2 -1 0 0 101   0  0.000000e+00  0.000000e+00 -2.182283e+03  2.182283e+03 0.0 0.0 9.0
 2  1 1 2 103   0  1.958494e+03 -1.342223e+03  1.124041e+03  2.626924e+03 0.0022 0.0 9.0
22  1 1 2   0   0 -1.958494e+03  1.342223e+03 -4.458865e+02  2.415797e+03 0.0 0.0 9.0
#pdf 21 2 4.400674e-01 3.357359e-01 5000.0 6.285045e-03 2.324980e-02
</event>
<event>
4 7 1.0 5000.0 7.905138e-03 7.739137e-02
21 -1 0 0 103 101  0.000000e+00  0.000000e+00  3.277837e+03  3.277837e+03 0.0 0.0 9.0
 2 -1 0 0 101   0  0.000000e+00  0.000000e+00 -1.897009e+03  1.897009e+03 0.0 0.0 9.0
22  1 1 2   0   0  1.073410e+03 -1.554386e+03 -9.986354e+02  2.136726e+03 0.0 0.0 9.0
 2  1 1 2 103   0 -1.073410e+03  1.554386e+03  2.379463e+03  3.038120e+03 0.0022 0.0 9.0
#pdf 21 2 5.042826e-01 2.918475e-01 5000.0 2.656005e-03 3.983707e-02
</event>
<event>
4 7 1.0 5000.0 7.905138e-03 7.739137e-02
21 -1 0 0 103 101  0.000000e+00  0.000000e+00  1.546473e+03  1.546473e+03 0.0 0.0 9.0
 2 -1 0 0 101   0  0.000000e+00  0.000000e+00 -3.730574e+03  3.730574e+03 0.0 0.0 9.0
 2  1 1 2 103   0 -1.656688e+03 -3.812125e+02  7.719458e+02  1.867040e+03 0.0022 0.0 9.0
22  1 1 2   0   0  1.656688e+03  3.812125e+02 -2.956046e+03  3.410007e+03 0.0 0.0 9.0
#pdf 21 2 2.379190e-01 5.739344e-01 5000.0 7.760700e-02 9.646974e-04
</event>
<event>
4 7 1.0 5000.0 7.905138e-03 7.739137e-02
 2 -1 0 0 101   0  0.000000e+00  0.000000e+00  3.592967e+03  3.592967e+03 0.0 0.0 9.0
21 -1 0 0 103 101  0.000000e+00  0.000000e+00 -1.751599e+03  1.751599e+03 0.0 0.0 9.0
22  1 1 2   0   0 -8.843713e+02  2.251125e+03  2.110859e+02  2.427804e+03 0.0 0.0 9.0
 2  1 1 2 103   0  8.843713e+02 -2.251125e+03  1.630282e+03  2.916761e+03 0.0022 0.0 9.0
#pdf 2 21 5.527641e-01 2.694767e-01 5000.0 4.521547e-02 2.878699e-01
</event>
<event>
4 7 1.0 5000.0 7.905138e-03 7.739137e-02
21 -1 0 0 103 101  0.000000e+00  0.000000e+00  1.726510e+03  1.726510e+03 0.0 0.0 9.0
 2 -1 0 0 101   0  0.000000e+00  0.000000e+00 -3.557445e+03  3.557445e+03 0.0 0.0 9.0
22  1 1 2   0   0 -7.336786e+02  6.282454e+01  1.607195e+03  1.767854e+03 0.0 0.0 9.0
 2  1 1 2 103   0  7.336786e+02 -6.282454e+01 -3.438130e+03  3.516101e+03 0.0022 0.0 9.0
#pdf 21 2 2.656169e-01 5.472992e-01 5000.0 5.493475e-02 1.438617e-03
</event>
<event>
4 7 1.0 5000.0 7.905138e-03 7.739137e-02
21 -1 0 0 103 101  0.000000e+00  0.000000e+00  1.444991e+03  1.444991e+03 0.0 0.0 9.0
 2 -1 0 0 101   0  0.000000e+00  0.000000e+00 -4.377154e+03  4.377154e+03 0.0 0.0 9.0
 2  1 1 2 103   0 -2.352002e+03  8.266244e+02 -1.849506e+03  3.104174e+03 0.0022 0.0 9.0
22  1 1 2   0   0  2.352002e+03 -8.266244e+02 -1.082658e+03  2.717972e+03 0.0 0.0 9.0
#pdf 21 2 2.223063e-01 6.734084e-01 5000.0 9.444477e-02 1.809992e-04
</event>
<event>
4 7 1.0 5000.0 7.905138e-03 7.739137e-02
 2 -1 0 0 101   0  0.000000e+00  0.000000e+00  1.473743e+03  1.473743e+03 0.0 0.0 9.0
21 -1 0 0 103 101  0.000000e+00  0.000000e+00 -3.438933e+03  3.438933e+03 0.0 0.0 9.0
 2  1 1 2 103   0 -1.984433e+03 -2.686261e+02  1.396854e+02  2.007398e+03 0.0022 0.0 9.0
22  1 1 2   0   0  1.984433e+03  2.686261e+02 -2.104876e+03  2.905277e+03 0.0 0.0 9.0
#pdf 2 21 2.267296e-01 5.290666e-01 5000.0 3.452057e-01 5.557929e-02
</event>
<event>
4 7 1.0 5000.0 7.905138e-03 7.739137e-02
21 -1 0 0 103 101  0.000000e+00  0.000000e+00  3.107537e+03  3.107537e+03 0.0 0.0 9.0
 2 -1 0 0 101   0  0.000000e+00  0.000000e+00 -2.020470e+03  2.020470e+03 0.0 0.0 9.0
 2  1 1 2 103   0  1.485122e+03 -9.851216e+02 -1.258859e+03  2.181921e+03 0.0022 0.0 9.0
22  1 1 2   0   0 -1.485122e+03  9.851216e+02  2.345926e+03  2.946086e+03 0.0 0.0 9.0
#pdf 21 2 4.780826e-01 3.108415e-01 5000.0 3.799645e-03 3.156571e-02
</event>
<event>
4 7 1.0 5000.0 7.905138e-03 7.739137e-02
21 -1 0 0 103 101  0.000000e+00  0.000000e+00  3.095628e+03  3.095628e+03 0.0 0.0 9.0
 2 -1 0 0 101   0  0.000000e+00  0.000000e+00 -1.956658e+03  1.956658e+03 0.0 0.0 9.0
 2  1 1 2 103   0 -1.295971e+03 -2.087147e+03  4.194709e+02  2.492324e+03 0.0022 0.0 9.0
22  1 1 2   0   0  1.295971e+03  2.087147e+03  7.194989e+02  2.559962e+03 0.0 0.0 9.0
#pdf 21 2 4.762504e-01 3.010243e-01 5000.0 3.894681e-03 3.556859e-02
</event>
<event>
4 7 1.0 5000.0 7.905138e-03 7.739137e-02
21 -1 0 0 103 101  0.000000e+00  0.000000e+00  4.427613e+03  4.427613e+03 0.0 0.0 9.0
 2 -1 0 0 101   0  0.000000e+00  0.000000e+00 -1.285988e+03  1.285988e+03 0.0 0.0 9.0
 2  1 1 2 103   0  5.789492e+01  1.390637e+03 -7.496588e+02  1.580889e+03 0.0022 0.0 9.0
22  1 1 2   0   0 -5.789492e+01 -1.390637e+03  3.891284e+03  4.132713e+03 0.0 0.0 9.0
#pdf 21 2 6.811713e-01 1.978443e-01 5000.0 1.562408e-04 1.293898e-01
</event>
<event>
4 7 1.0 5000.0 7.905138e-03 7.739137e-02
21 -1 0 0 103 101  0.000000e+00  0.000000e+00  1.282769e+03  1.282769e+03 0.0 0.0 9.0
 2 -1 0 0 101   0  0.000000e+00  0.000000e+00 -4.611619e+03  4.611619e+03 0.0 0.0 9.0
22  1 1 2   0   0 -1.610681e+03 -6.549433e+02 -3.725230e+03  4.111032e+03 0.0 0.0 9.0
 2  1 1 2 103   0  1.610681e+03  6.549433e+02  3.963792e+02  1.783357e+03 0.0022 0.0 9.0
#pdf 21 2 1.973491e-01 7.094799e-01 5000.0 1.302236e-01 8.929772e-05
</event>
<event>
4 7 1.0 5000.0 7.905138e-03 7.739137e-02
 2 -1 0 0 101   0  0.000000e+00  0.000000e+00  1.835004e+03  1.835004e+03 0.0 0.0 9.0
21 -1 0 0 103 101  0.000000e+00  0.000000e+00 -3.380716e+03  3.380716e+03 0.0 0.0 9.0
22  1 1 2   0   0  1.093584e+03 -3.716588e+02 -3.083360e+03  3.292593e+03 0.0 0.0 9.0
 2  1 1 2 103   0 -1.093584e+03  3.716588e+02  1.537648e+03  1.923127e+03 0.0022 0.0 9.0
#pdf 2 21 2.823083e-01 5.201102e-01 5000.0 2.713308e-01 5.989305e-02
</event>
<event>
4 7 1.0 5000.0 7.905138e-03 7.739137e-02
21 -1 0 0 103 101  0.000000e+00  0.000000e+00  2.275942e+03  2.275942e+03 0.0 0.0 9.0
 2 -1 0 0 101   0  0.000000e+00  0.000000e+00 -2.716750e+03  2.716750e+03 0.0 0.0 9.0
 2  1 1 2 103   0  3.026505e+02  5.476511e+02 -2.636423e+03  2.709658e+03 0.0022 0.0 9.0
22  1 1 2   0   0 -3.026505e+02 -5.476511e+02  2.195615e+03  2.283034e+03 0.0 0.0 9.0
#pdf 21 2 3.501449e-01 4.179615e-01 5000.0 1.948491e-02 8.344264e-03
</event>
<event>
4 7 1.0 5000.0 7.905138e-03 7.739137e-02
21 -1 0 0 103 101  0.000000e+00  0.000000e+00  3.785602e+03  3.785602e+03 0.0 0.0 9.0
 2 -1 0 0 101   0  0.000000e+00  0.000000e+00 -1.667748e+03  1.667748e+03 0.0 0.0 9.0
 2  1 1 2 103   0  3.865988e+02  2.449267e+03  1.499815e+03  2.897898e+03 0.0022 0.0 9.0
22  1 1 2   0   0 -3.865988e+02 -2.449267e+03  6.180390e+02  2.555453e+03 0.0 0.0 9.0
#pdf 21 2 5.824004e-01 2.565767e-01 5000.0 8.468223e-04 6.149123e-02
</event>
<event>
4 7 1.0 5000.0 7.905138e-03 7.739137e-02
 2 -1 0 0 101   0  0.000000e+00  0.000000e+00  3.381933e+03  3.381933e+03 0.0 0.0 9.0
21 -1 0 0 103 101  0.000000e+00  0.000000e+00 -1.839887e+03  1.839887e+03 0.0 0.0 9.0
 2  1 1 2 103   0  2.313905e+03  5.109843e+02 -4.452547e+01  2.370072e+03 0.0022 0.0 9.0
22  1 1 2   0   0 -2.313905e+03 -5.109843e+02  1.586571e+03  2.851748e+03 0.0 0.0 9.0
#pdf 2 21 5.202974e-01 2.830596e-01 5000.0 5.980050e-02 2.703753e-01
</event>
<event>
4 7 1.0 5000.0 7.905138e-03 7.739137e-02
 2 -1 0 0 101   0  0.000000e+00  0.000000e+00  1.592997e+03  1.592997e+03 0.0 0.0 9.0
21 -1 0 0 103 101  0.000000e+00  0.000000e+00 -3.956160e+03  3.956160e+03 0.0 0.0 9.0
22  1 1 2   0   0  1.165009e+03  1.923714e+03 -2.414410e+03  3.299591e+03 0.0 0.0 9.0
 2  1 1 2 103   0 -1.165009e+03 -1.923714e+03  5.124704e+01  2.249566e+03 0.0022 0.0 9.0
#pdf 2 21 2.450765e-01 6.086400e-01 5000.0 3.202492e-01 2.642639e-02
</event>
<event>
4 7 1.0 5000.0 7.905138e-03 7.739137e-02
21 -1 0 0 103 101  0.000000e+00  0.000000e+00  2.309885e+03  2.309885e+03 0.0 0.0 9.0
 2 -1 0 0 101   0  0.000000e+00  0.000000e+00 -2.711676e+03  2.711676e+03 0.0 0.0 9.0
 2  1 1 2 103   0  2.389007e+03 -5.820578e+02 -6.687790e+02  2.548218e+03 0.0022 0.0 9.0
22  1 1 2   0   0 -2.389007e+03  5.820578e+02  2.669874e+02  2.473344e+03 0.0 0.0 9.0
#pdf 21 2 3.553669e-01 4.171810e-01 5000.0 1.826080e-02 8.427586e-03
</event>
<event>
4 7 1.0 5000.0 7.905138e-03 7.739137e-02
 2 -1 0 0 101   0  0.000000e+00  0.000000e+00  1.395764e+03  1.395764e+03 0.0 0.0 9.0
21 -1 0 0 103 101  0.000000e+00  0.000000e+00 -4.524354e+03  4.524354e+03 0.0 0.0 9.0
22  1 1 2   0   0  3.109789e+02 -2.439387e+03 -2.173650e+03  3.282083e+03 0.0 0.0 9.0
 2  1 1 2 103   0 -3.109789e+02  2.439387e+03 -9.549404e+02  2.638034e+03 0.0022 0.0 9.0
#pdf 2 21 2.147329e-01 6.960544e-01 5000.0 3.616520e-01 9.443537e-03
</event>
<event>
4 7 1.0 5000.0 7.905138e-03 7.739137e-02
 2 -1 0 0 101   0  0.000000e+00  0.000000e+00  3.482476e+03  3.482476e+03 0.0 0.0 9.0
21 -1 0 0 103 101  0.000000e+00  0.000000e+00 -1.781824e+03  1.781824e+03 0.0 0.0 9.0
 2  1 1 2 103   0  1.228061e+03  2.567435e+02 -1.423601e+03  1.897549e+03 0.0022 0.0 9.0
22  1 1 2   0   0 -1.228061e+03 -2.567435e+02  3.124253e+03  3.366751e+03 0.0 0.0 9.0
#pdf 2 21 5.357655e-01 2.741267e-01 5000.0 5.248966e-02 2.818277e-01
</event>
<event>
4 7 1.0 5000.0 7.905138e-03 7.739137e-02
 2 -1 0 0 101   0  0.000000e+00  0.000000e+00  2.506807e+03  2.506807e+03 0.0 0.0 9.0
21 -1 0 0 103 101  0.000000e+00  0.000000e+00 -1.901662e+03  1.901662e+03 0.0 0.0 9.0
22  1 1 2   0   0 -6.446343e+02  1.615172e+03 -1.030181e+03  2.021289e+03 0.0 0.0 9.0
 2  1 1 2 103   0  6.446343e+02 -1.615172e+03  1.635327e+03  2.387180e+03 0.0022 0.0 9.0
#pdf 2 21 3.856627e-01 2.925633e-01 5000.0 1.557580e-01 2.583867e-01
</event>
<event>
4 7 1.0 5000.0 7.905138e-03 7.739137e-02
21 -1 0 0 103 101  0.000000e+00  0.000000e+00  2.056876e+03  2.056876e+03 0.0 0.0 9.0
 2 -1 0 0 101   0  0.000000e+00  0.000000e+00 -3.105847e+03  3.105847e+03 0.0 0.0 9.0
22  1 1 2   0   0 -8.476249e+02  2.146868e+02  1.897486e+03  2.089261e+03 0.0 0.0 9.0
 2  1 1 2 103   0  8.476249e+02 -2.146868e+02 -2.946457e+03  3.073462e+03 0.0022 0.0 9.0
#pdf 21 2 3.164425e-01 4.778226e-01 5000.0 2.945187e-02 3.813004e-03
</event>
<event>
4 7 1.0 5000.0 7.905138e-03 7.739137e-02
 2 -1 0 0 101   0  0.000000e+00  0.000000e+00  2.376324e+03  2.376324e+03 0.0 0.0 9.0
21 -1 0 0 103 101  0.000000e+00  0.000000e+00 -2.583229e+03  2.583229e+03 0.0 0.0 9.0
 2  1 1 2 103   0  1.475084e+03  1.944636e+03  3.224859e+02  2.462007e+03 0.0022 0.0 9.0
22  1 1 2   0   0 -1.475084e+03 -1.944636e+03 -5.293910e+02  2.497546e+03 0.0 0.0 9.0
#pdf 2 21 3.655884e-01 3.974199e-01 5000.0 1.754178e-01 1.448977e-01
</event>
<event>
4 7 1.0 5000.0 7.905138e-03 7.739137e-02
 2 -1 0 0 101   0  0.000000e+00  0.000000e+00  2.910176e+03  2.910176e+03 0.0 0.0 9.0
21 -1 0 0 103 101  0.000000e+00  0.000000e+00 -2.162097e+03  2.162097e+03 0.0 0.0 9.0
22  1 1 2   0   0 -1.485078e+03  9.510012e+02  2.177642e+03  2.802139e+03 0.0 0.0 9.0
 2  1 1 2 103   0  1.485078e+03 -9.510012e+02 -1.429562e+03  2.270134e+03 0.0022 0.0 9.0
#pdf 2 21 4.477194e-01 3.326303e-01 5000.0 1.039009e-01 2.107469e-01
</event>
<event>
4 7 1.0 5000.0 7.905138e-03 7.739137e-02
 2 -1 0 0 101   0  0.000000e+00  0.000000e+00  3.995677e+03  3.995677e+03 0.0 0.0 9.0
21 -1 0 0 103 101  0.000000e+00  0.000000e+00 -1.677210e+03  1.677210e+03 0.0 0.0 9.0
 2  1 1 2 103   0  2.248063e+03 -3.076646e+02  2.524732e+03  3.394513e+03 0.0022 0.0 9.0
22  1 1 2   0   0 -2.248063e+03  3.076646e+02 -2.062659e+02  2.278374e+03 0.0 0.0 9.0
#pdf 2 21 6.147195e-01 2.580323e-01 5000.0 2.480315e-02 3.029007e-01
</event>
<event>
4 7 1.0 5000.0 7.905138e-03 7.739137e-02
 2 -1 0 0 101   0  0.000000e+00  0.000000e+00  2.899491e+03  2.899491e+03 0.0 0.0 9.0
21 -1 0 0 103 101  0.000000e+00  0.000000e+00 -2.151037e+03  2.151037e+03 0.0 0.0 9.0
 2  1 1 2 103   0  8.595096e+02  1.688624e+03 -1.270807e+03  2.281481e+03 0.0022 0.0 9.0
22  1 1 2   0   0 -8.595096e+02 -1.688624e+03  2.019261e+03  2.769047e+03 0.0 0.0 9.0
#pdf 2 21 4.460755e-01 3.309288e-01 5000.0 1.051003e-01 2.126701e-01
</event>
<event>
4 7 1.0 5000.0 7.905138e-03 7.739137e-02
 2 -1 0 0 101   0  0.000000e+00  0.000000e+00  2.122157e+03  2.122157e+03 0.0 0.0 9.0
21 -1 0 0 103 101  0.000000e+00  0.000000e+00 -2.829316e+03  2.829316e+03 0.0 0.0 9.0
22  1 1 2   0   0  1.298831e+03  7.141808e+02 -2.325002e+03  2.757291e+03 0.0 0.0 9.0
 2  1 1 2 103   0 -1.298831e+03 -7.141808e+02  1.617844e+03  2.194182e+03 0.0022 0.0 9.0
#pdf 2 21 3.264857e-01 4.352793e-01 5000.0 2.177387e-01 1.132293e-01
</event>
<event>
4 7 1.0 5000.0 7.905138e-03 7.739137e-02
21 -1 0 0 103 101  0.000000e+00  0.000000e+00  1.711877e+03  1.711877e+03 0.0 0.0 9.0
 2 -1 0 0 101   0  0.000000e+00  0.000000e+00 -3.748536e+03  3.748536e+03 0.0 0.0 9.0
22  1 1 2   0   0 -2.255791e+02 -1.108634e+03 -3.461121e+03  3.641334e+03 0.0 0.0 9.0
 2  1 1 2 103   0  2.255791e+02  1.108634e+03  1.424463e+03  1.819079e+03 0.0022 0.0 9.0
#pdf 21 2 2.633657e-01 5.766978e-01 5000.0 5.648681e-02 9.245880e-04
</event>
<event>
4 7 1.0 5000.0 7.905138e-03 7.739137e-02
21 -1 0 0 103 101  0.000000e+00  0.000000e+00  2.454946e+03  2.454946e+03 0.0 0.0 9.0
 2 -1 0 0 101   0  0.000000e+00  0.000000e+00 -2.482280e+03  2.482280e+03 0.0 0.0 9.0
22  1 1 2   0   0 -2.250043e+03 -5.421518e+02  8.449737e+02  2.463859e+03 0.0 0.0 9.0
 2  1 1 2 103   0  2.250043e+03  5.421518e+02 -8.723076e+02  2.473366e+03 0.0022 0.0 9.0
#pdf 21 2 3.776840e-01 3.818892e-01 5000.0 1.386892e-02 1.316136e-02
</event>
<event>
4 7 1.0 5000.0 7.905138e-03 7.739137e-02
21 -1 0 0 103 101  0.000000e+00  0.000000e+00  1.396969e+03  1.396969e+03 0.0 0.0 9.0
 2 -1 0 0 101   0  0.000000e+00  0.000000e+00 -4.334430e+03  4.334430e+03 0.0 0.0 9.0
 2  1 1 2 103   0 -6.735449e+02  2.233500e+03 -2.380443e+03  3.332971e+03 0.0022 0.0 9.0
22  1 1 2   0   0  6.735449e+02 -2.233500e+03 -5.570180e+02  2.398428e+03 0.0 0.0 9.0
#pdf 21 2 2.149183e-01 6.668354e-01 5000.0 1.038137e-01 2.042146e-04
</event>
<event>
4 7 1.0 5000.0 7.905138e-03 7.739137e-02
21 -1 0 0 103 101  0.000000e+00  0.000000e+00  2.498771e+03  2.498771e+03 0.0 0.0 9.0
 2 -1 0 0 101   0  0.000000e+00  0.000000e+00 -1.911981e+03  1.911981e+03 0.0 0.0 9.0
 2  1 1 2 103   0  1.348519e+03 -1.700554e+03  3.180985e+01  2.170576e+03 0.0022 0.0 9.0
22  1 1 2   0   0 -1.348519e+03  1.700554e+03  5.549803e+02  2.240177e+03 0.0 0.0 9.0
#pdf 21 2 3.844264e-01 2.941510e-01 5000.0 1.274855e-02 3.873432e-02
</event>
<event>
4 7 1.0 5000.0 7.905138e-03 7.739137e-02
21 -1 0 0 103 101  0.000000e+00  0.000000e+00  1.740486e+03  1.740486e+03 0.0 0.0 9.0
 2 -1 0 0 101   0  0.000000e+00  0.000000e+00 -3.505869e+03  3.505869e+03 0.0 0.0 9.0
22  1 1 2   0   0  1.491364e+03  1.132440e+02  1.204994e+03  1.920677e+03 0.0 0.0 9.0
 2  1 1 2 103   0 -1.491364e+03 -1.132440e+02 -2.970377e+03  3.325677e+03 0.0022 0.0 9.0
#pdf 21 2 2.677671e-01 5.393644e-01 5000.0 5.349631e-02 1.614573e-03
</event>
<event>
4 7 1.0 5000.0 7.905138e-03 7.739137e-02
 2 -1 0 0 101   0  0.000000e+00  0.000000e+00  2.823100e+03  2.823100e+03 0.0 0.0 9.0
21 -1 0 0 103 101  0.000000e+00  0.000000e+00 -2.011417e+03  2.011417e+03 0.0 0.0 9.0
 2  1 1 2 103   0 -5.916976e+02 -8.386035e+02 -1.775723e+03  2.050989e+03 0.0022 0.0 9.0
22  1 1 2   0   0  5.916976e+02  8.386035e+02  2.587405e+03  2.783528e+03 0.0 0.0 9.0
#pdf 2 21 4.343230e-01 3.094488e-01 5000.0 1.139655e-01 2.377245e-01
</event>
<event>
4 7 1.0 5000.0 7.905138e-03 7.739137e-02
 2 -1 0 0 101   0  0.000000e+00  0.000000e+00  4.123734e+03  4.123734e+03 0.0 0.0 9.0
21 -1 0 0 103 101  0.000000e+00  0.000000e+00 -1.521561e+03  1.521561e+03 0.0 0.0 9.0
 2  1 1 2 103   0 -5.237431e+02 -1.158695e+03 -1.130833e+03  1.701665e+03 0.0022 0.0 9.0
22  1 1 2   0   0  5.237431e+02  1.158695e+03  3.733006e+03  3.943630e+03 0.0 0.0 9.0
#pdf 2 21 6.344206e-01 2.340863e-01 5000.0 2.004421e-02 3.351280e-01
</event>
<event>
4 7 1.0 5000.0 7.905138e-03 7.739137e-02
 2 -1 0 0 101   0  0.000000e+00  0.000000e+00  2.781639e+03  2.781639e+03 0.0 0.0 9.0
21 -1 0 0 103 101  0.000000e+00  0.000000e+00 -1.748762e+03  1.748762e+03 0.0 0.0 9.0
22  1 1 2   0   0 -4.496486e+02 -1.555120e+03  2.054901e+03  2.615951e+03 0.0 0.0 9.0
 2  1 1 2 103   0  4.496486e+02  1.555120e+03 -1.022024e+03  1.914449e+03 0.0022 0.0 9.0
#pdf 2 21 4.279445e-01 2.690403e-01 5000.0 1.189577e-01 2.884394e-01
</event>
<event>
4 7 1.0 5000.0 7.905138e-03 7.739137e-02
21 -1 0 0 103 101  0.000000e+00  0.000000e+00  1.481729e+03  1.481729e+03 0.0 0.0 9.0
 2 -1 0 0 101   0  0.000000e+00  0.000000e+00 -4.186286e+03  4.186286e+03 0.0 0.0 9.0
22  1 1 2   0   0 -5.004139e+02  6.716333e+02  1.316670e+03  1.560488e+03 0.0 0.0 9.0
 2  1 1 2 103   0  5.004139e+02 -6.716333e+02 -4.021227e+03  4.107526e+03 0.0022 0.0 9.0
#pdf 21 2 2.279582e-01 6.440439e-01 5000.0 8.787227e-02 3.075831e-04
</event>
<event>
4 7 1.0 5000.0 7.905138e-03 7.739137e-02
21 -1 0 0 103 101  0.000000e+00  0.000000e+00  1.237504e+03  1.237504e+03 0.0 0.0 9.0
 2 -1 0 0 101   0  0.000000e+00  0.000000e+00 -5.030897e+03  5.030897e+03 0.0 0.0 9.0
22  1 1 2   0   0  3.087875e+02 -1.640013e+03  4.333149e+02  1.724167e+03 0.0 0.0 9.0
 2  1 1 2 103   0 -3.087875e+02  1.640013e+03 -4.226708e+03  4.544233e+03 0.0022 0.0 9.0
#pdf 21 2 1.903852e-01 7.739841e-01 5000.0 1.427418e-01 2.049396e-05
</event>
<event>
4 7 1.0 5000.0 7.905138e-03 7.739137e-02
21 -1 0 0 103 101  0.000000e+00  0.000000e+00  2.274839e+03  2.274839e+03 0.0 0.0 9.0
 2 -1 0 0 101   0  0.000000e+00  0.000000e+00 -2.748479e+03  2.748479e+03 0.0 0.0 9.0
 2  1 1 2 103   0  1.708027e+03  6.293772e+02 -1.958806e+03  2.674022e+03 0.0022 0.0 9.0
22  1 1 2   0   0 -1.708027e+03 -6.293772e+02  1.485165e+03  2.349295e+03 0.0 0.0 9.0
#pdf 21 2 3.499752e-01 4.228429e-01 5000.0 1.952573e-02 7.840244e-03
</event>
<event>
4 7 1.0 5000.0 7.905138e-03 7.739137e-02
21 -1 0 0 103 101  0.000000e+00  0.000000e+00  4.381609e+03  4.381609e+03 0.0 0.0 9.0
 2 -1 0 0 101   0  0.000000e+00  0.000000e+00 -1.397003e+03  1.397003e+03 0.0 0.0 9.0
 2  1 1 2 103   0  1.621567e+02 -2.350288e+03  6.098623e+02  2.433533e+03 0.0022 0.0 9.0
22  1 1 2   0   0 -1.621567e+02  2.350288e+03  2.374744e+03  3.345079e+03 0.0 0.0 9.0
#pdf 21 2 6.740937e-01 2.149235e-01 5000.0 1.786756e-04 1.038067e-01
</event>
<event>
4 7 1.0 5000.0 7.905138e-03 7.739137e-02
 2 -1 0 0 101   0  0.000000e+00  0.000000e+00  2.981078e+03  2.981078e+03 0.0 0.0 9.0
21 -1 0 0 103 101  0.000000e+00  0.000000e+00 -2.088371e+03  2.088371e+03 0.0 0.0 9.0
22  1 1 2   0   0 -8.163595e+02 -1.953436e+03  1.787633e+03  2.770918e+03 0.0 0.0 9.0
 2  1 1 2 103   0  8.163595e+02  1.953436e+03 -8.949262e+02  2.298532e+03 0.0022 0.0 9.0
#pdf 2 21 4.586274e-01 3.212879e-01 5000.0 9.617920e-02 2.237474e-01
</event>
<event>
4 7 1.0 5000.0 7.905138e-03 7.739137e-02
 2 -1 0 0 101   0  0.000000e+00  0.000000e+00  1.784033e+03  1.784033e+03 0.0 0.0 9.0
21 -1 0 0 103 101  0.000000e+00  0.000000e+00 -3.345261e+03  3.345261e+03 0.0 0.0 9.0
 2  1 1 2 103   0  1.516560e+03 -3.462668e+02 -2.758109e+03  3.166547e+03 0.0022 0.0 9.0
22  1 1 2   0   0 -1.516560e+03  3.462668e+02  1.196881e+03  1.962748e+03 0.0 0.0 9.0
#pdf 2 21 2.744667e-01 5.146556e-01 5000.0 2.813880e-01 6.263754e-02
</event>
<event>
4 7 1.0 5000.0 7.905138e-03 7.739137e-02
 2 -1 0 0 101   0  0.000000e+00  0.000000e+00  2.264098e+03  2.264098e+03 0.0 0.0 9.0
21 -1 0 0 103 101  0.000000e+00  0.000000e+00 -2.786539e+03  2.786539e+03 0.0 0.0 9.0
22  1 1 2   0   0 -3.372109e+02  2.306325e+03 -1.202300e+03  2.622665e+03 0.0 0.0 9.0
 2  1 1 2 103   0  3.372109e+02 -2.306325e+03  6.798587e+02  2.427973e+03 0.0022 0.0 9.0
#pdf 2 21 3.483228e-01 4.286984e-01 5000.0 1.934673e-01 1.183598e-01
</event>
<event>
4 7 1.0 5000.0 7.905138e-03 7.739137e-02
21 -1 0 0 103 101  0.000000e+00  0.000000e+00  2.056259e+03  2.056259e+03 0.0 0.0 9.0
 2 -1 0 0 101   0  0.000000e+00  0.000000e+00 -3.027613e+03  3.027613e+03 0.0 0.0 9.0
22  1 1 2   0   0  3.742376e+02  8.860020e+02  1.859815e+03  2.093792e+03 0.0 0.0 9.0
 2  1 1 2 103   0 -3.742376e+02 -8.860020e+02 -2.831170e+03  2.990080e+03 0.0022 0.0 9.0
#pdf 21 2 3.163475e-01 4.657867e-01 5000.0 2.948640e-02 4.478606e-03
</event>
<event>
4 7 1.0 5000.0 7.905138e-03 7.739137e-02
21 -1 0 0 103 101  0.000000e+00  0.000000e+00  2.346646e+03  2.346646e+03 0.0 0.0 9.0
 2 -1 0 0 101   0  0.000000e+00  0.000000e+00 -2.685797e+03  2.685797e+03 0.0 0.0 9.0
22  1 1 2   0   0 -1.364687e+03  1.565982e+03 -1.582733e+03  2.611459e+03 0.0 0.0 9.0
 2  1 1 2 103   0  1.364687e+03 -1.565982e+03  1.243582e+03  2.420985e+03 0.0022 0.0 9.0
#pdf 21 2 3.610225e-01 4.131996e-01 5000.0 1.703397e-02 8.865371e-03
</event>
<event>
4 7 1.0 5000.0 7.905138e-03 7.739137e-02
21 -1 0 0 103 101  0.000000e+00  0.000000e+00  1.392303e+03  1.392303e+03 0.0 0.0 9.0
 2 -1 0 0 101   0  0.000000e+00  0.000000e+00 -4.491806e+03  4.491806e+03 0.0 0.0 9.0
 2  1 1 2 103   0  1.416380e+03 -1.181126e+03  4.372865e+02  1.895366e+03 0.0022 0.0 9.0
22  1 1 2   0   0 -1.416380e+03  1.181126e+03 -3.536789e+03  3.988743e+03 0.0 0.0 9.0
#pdf 21 2 2.142005e-01 6.910471e-01 5000.0 1.047693e-01 1.293217e-04
</event>
<event>
4 7 1.0 5000.0 7.905138e-03 7.739137e-02
21 -1 0 0 103 101  0.000000e+00  0.000000e+00  2.437792e+03  2.437792e+03 0.0 0.0 9.0
 2 -1 0 0 101   0  0.000000e+00  0.000000e+00 -2.577385e+03  2.577385e+03 0.0 0.0 9.0
22  1 1 2   0   0 -2.997451e+02  2.432472e+03  4.561083e+02  2.492950e+03 0.0 0.0 9.0
 2  1 1 2 103   0  2.997451e+02 -2.432472e+03 -5.957012e+02  2.522226e+03 0.0022 0.0 9.0
#pdf 21 2 3.750449e-01 3.965207e-01 5000.0 1.432637e-02 1.094822e-02
</event>
<event>
4 7 1.0 5000.0 7.905138e-03 7.739137e-02
21 -1 0 0 103 101  0.000000e+00  0.000000e+00  4.564077e+03  4.564077e+03 0.0 0.0 9.0
 2 -1 0 0 101   0  0.000000e+00  0.000000e+00 -1.442313e+03  1.442313e+03 0.0 0.0 9.0
 2  1 1 2 103   0 -1.357036e+03 -1.016752e+03  3.814694e+03  4.174593e+03 0.0022 0.0 9.0
22  1 1 2   0   0  1.357036e+03  1.016752e+03 -6.929308e+02  1.831798e+03 0.0 0.0 9.0
#pdf 21 2 7.021657e-01 2.218944e-01 5000.0 1.035661e-04 9.494426e-02
</event>
<event>
4 7 1.0 5000.0 7.905138e-03 7.739137e-02
 2 -1 0 0 101   0  0.000000e+00  0.000000e+00  2.736258e+03  2.736258e+03 0.0 0.0 9.0
21 -1 0 0 103 101  0.000000e+00  0.000000e+00 -2.272016e+03  2.272016e+03 0.0 0.0 9.0
22  1 1 2   0   0  9.407073e+02  1.076697e+03 -1.819410e+03  2.313970e+03 0.0 0.0 9.0
 2  1 1 2 103   0 -9.407073e+02 -1.076697e+03  2.283652e+03  2.694304e+03 0.0022 0.0 9.0
#pdf 2 21 4.209628e-01 3.495409e-01 5000.0 1.245979e-01 1.921598e-01
</event>
<event>
4 7 1.0 5000.0 7.905138e-03 7.739137e-02
21 -1 0 0 103 101  0.000000e+00  0.000000e+00  1.523491e+03  1.523491e+03 0.0 0.0 9.0
 2 -1 0 0 101   0  0.000000e+00  0.000000e+00 -3.914928e+03  3.914928e+03 0.0 0.0 9.0
 2  1 1 2 103   0 -1.695283e+02 -2.187529e+03 -2.389908e+03  3.244331e+03 0.0022 0.0 9.0
22  1 1 2   0   0  1.695283e+02  2.187529e+03 -1.529418e+00  2.194088e+03 0.0 0.0 9.0
#pdf 21 2 2.343832e-01 6.022966e-01 5000.0 8.108906e-02 6.187907e-04
</event>
<event>
4 7 1.0 5000.0 7.905138e-03 7.739137e-02
 2 -1 0 0 101   0  0.000000e+00  0.000000e+00  1.607104e+03  1.607104e+03 0.0 0.0 9.0
21 -1 0 0 103 101  0.000000e+00  0.000000e+00 -3.898874e+03  3.898874e+03 0.0 0.0 9.0
 2  1 1 2 103   0  3.746681e+02 -5.813670e+02  1.499931e+03  1.651713e+03 0.0022 0.0 9.0
22  1 1 2   0   0 -3.746681e+02  5.813670e+02 -3.791701e+03  3.854265e+03 0.0 0.0 9.0
#pdf 2 21 2.472467e-01 5.998268e-01 5000.0 3.173179e-01 2.891341e-02
</event>
<event>
4 7 1.0 5000.0 7.905138e-03 7.739137e-02
21 -1 0 0 103 101  0.000000e+00  0.000000e+00  2.018027e+03  2.018027e+03 0.0 0.0 9.0
 2 -1 0 0 101   0  0.000000e+00  0.000000e+00 -3.126158e+03  3.126158e+03 0.0 0.0 9.0
 2  1 1 2 103   0  1.877320e+03  1.053017e+03  7.714630e+02  2.286555e+03 0.0022 0.0 9.0
22  1 1 2   0   0 -1.877320e+03 -1.053017e+03 -1.879594e+03  2.857630e+03 0.0 0.0 9.0
#pdf 21 2 3.104657e-01 4.809474e-01 5000.0 3.171276e-02 3.655091e-03
</event>
<event>
4 7 1.0 5000.0 7.905138e-03 7.739137e-02
 2 -1 0 0 101   0  0.000000e+00  0.000000e+00  1.785480e+03  1.785480e+03 0.0 0.0 9.0
21 -1 0 0 103 101  0.000000e+00  0.000000e+00 -3.457438e+03  3.457438e+03 0.0 0.0 9.0
22  1 1 2   0   0 -1.187329e+03 -9.990467e+02  1.211364e+03  1.968565e+03 0.0 0.0 9.0
 2  1 1 2 103   0  1.187329e+03  9.990467e+02 -2.883321e+03  3.274353e+03 0.0022 0.0 9.0
#pdf 2 21 2.746893e-01 5.319135e-01 5000.0 2.811002e-01 5.425318e-02
</event>
<event>
4 7 1.0 5000.0 7.905138e-03 7.739137e-02
 2 -1 0 0 101   0  0.000000e+00  0.000000e+00  2.213455e+03  2.213455e+03 0.0 0.0 9.0
21 -1 0 0 103 101  0.000000e+00  0.000000e+00 -2.851171e+03  2.851171e+03 0.0 0.0 9.0
 2  1 1 2 103   0  4.755274e+02  2.029851e+03  1.094000e+03  2.354412e+03 0.0022 0.0 9.0
22  1 1 2   0   0 -4.755274e+02 -2.029851e+03 -1.731717e+03  2.710214e+03 0.0 0.0 9.0
#pdf 2 21 3.405316e-01 4.386418e-01 5000.0 2.019483e-01 1.106630e-01
</event>
<event>
4 7 1.0 5000.0 7.905138e-03 7.739137e-02
21 -1 0 0 103 101  0.000000e+00  0.000000e+00  2.286129e+03  2.286129e+03 0.0 0.0 9.0
 2 -1 0 0 101   0  0.000000e+00  0.000000e+00 -2.727321e+03  2.727321e+03 0.0 0.0 9.0
 2  1 1 2 103   0 -2.449066e+03 -3.863149e+02 -5.181382e+02  2.532909e+03 0.0022 0.0 9.0
22  1 1 2   0   0  2.449066e+03  3.863149e+02  7.694661e+01  2.480541e+03 0.0 0.0 9.0
#pdf 21 2 3.517122e-01 4.195878e-01 5000.0 1.911118e-02 8.173145e-03
</event>
<event>
4 7 1.0 5000.0 7.905138e-03 7.739137e-02
21 -1 0 0 103 101  0.000000e+00  0.000000e+00  2.412802e+03  2.412802e+03 0.0 0.0 9.0
 2 -1 0 0 101   0  0.000000e+00  0.000000e+00 -2.585741e+03  2.585741e+03 0.0 0.0 9.0
22  1 1 2   0   0  1.408015e+03  4.457593e+01 -2.150322e+03  2.570676e+03 0.0 0.0 9.0
 2  1 1 2 103   0 -1.408015e+03 -4.457593e+01  1.977382e+03  2.427866e+03 0.0022 0.0 9.0
#pdf 21 2 3.712002e-01 3.978063e-01 5000.0 1.501158e-02 1.077281e-02
</event>
<event>
4 7 1.0 5000.0 7.905138e-03 7.739137e-02
 2 -1 0 0 101   0  0.000000e+00  0.000000e+00  4.040583e+03  4.040583e+03 0.0 0.0 9.0
21 -1 0 0 103 101  0.000000e+00  0.000000e+00 -1.551051e+03  1.551051e+03 0.0 0.0 9.0
 2  1 1 2 103   0  1.603714e+03  7.777798e+02  3.208011e+03  3.669902e+03 0.0022 0.0 9.0
22  1 1 2   0   0 -1.603714e+03 -7.777798e+02 -7.184795e+02  1.921732e+03 0.0 0.0 9.0
#pdf 2 21 6.216281e-01 2.386232e-01 5000.0 2.304907e-02 3.289351e-01
</event>
<event>
4 7 1.0 5000.0 7.905138e-03 7.739137e-02
21 -1 0 0 103 101  0.000000e+00  0.000000e+00  1.507557e+03  1.507557e+03 0.0 0.0 9.0
 2 -1 0 0 101   0  0.000000e+00  0.000000e+00 -4.323595e+03  4.323595e+03 0.0 0.0 9.0
 2  1 1 2 103   0  6.071221e+02  2.478918e+03 -1.331954e+03  2.878842e+03 0.0022 0.0 9.0
22  1 1 2   0   0 -6.071221e+02 -2.478918e+03 -1.484084e+03  2.952310e+03 0.0 0.0 9.0
#pdf 21 2 2.319318e-01 6.651685e-01 5000.0 8.359748e-02 2.105232e-04
</event>
<event>
4 7 1.0 5000.0 7.905138e-03 7.739137e-02
21 -1 0 0 103 101  0.000000e+00  0.000000e+00  1.570070e+03  1.570070e+03 0.0 0.0 9.0
 2 -1 0 0 101   0  0.000000e+00  0.000000e+00 -2.886184e+03  2.886184e+03 0.0 0.0 9.0
22  1 1 2   0   0  2.688928e+02  1.977087e+03  1.184251e+02  1.998800e+03 0.0 0.0 9.0
 2  1 1 2 103   0 -2.688928e+02 -1.977087e+03 -1.434538e+03  2.457454e+03 0.0022 0.0 9.0
#pdf 21 2 2.415493e-01 4.440282e-01 5000.0 7.415814e-02 5.965281e-03
</event>
<event>
4 7 1.0 5000.0 7.905138e-03 7.739137e-02
21 -1 0 0 103 101  0.000000e+00  0.000000e+00  3.472338e+03  3.472338e+03 0.0 0.0 9.0
 2 -1 0 0 101   0  0.000000e+00  0.000000e+00 -2.021214e+03  2.021214e+03 0.0 0.0 9.0
22  1 1 2   0   0 -1.454329e+03  2.139230e+03  1.318423e+03  2.903381e+03 0.0 0.0 9.0
 2  1 1 2 103   0  1.454329e+03 -2.139230e+03  1.327005e+02  2.590171e+03 0.0022 0.0 9.0
#pdf 21 2 5.342058e-01 3.109560e-01 5000.0 1.741118e-03 3.152103e-02
</event>
<event>
4 7 1.0 5000.0 7.905138e-03 7.739137e-02
 2 -1 0 0 101   0  0.000000e+00  0.000000e+00  3.968790e+03  3.968790e+03 0.0 0.0 9.0
21 -1 0 0 103 101  0.000000e+00  0.000000e+00 -1.559150e+03  1.559150e+03 0.0 0.0 9.0
22  1 1 2   0   0  1.742506e+03 -1.768343e+03  1.030632e+03  2.688042e+03 0.0 0.0 9.0
 2  1 1 2 103   0 -1.742506e+03  1.768343e+03  1.379008e+03  2.839899e+03 0.0022 0.0 9.0
#pdf 2 21 6.105831e-01 2.398693e-01 5000.0 2.589926e-02 3.272442e-01
</event>
<event>
4 7 1.0 5000.0 7.905138e-03 7.739137e-02
 2 -1 0 0 101   0  0.000000e+00  0.000000e+00  1.217444e+03  1.217444e+03 0.0 0.0 9.0
21 -1 0 0 103 101  0.000000e+00  0.000000e+00 -4.778173e+03  4.778173e+03 0.0 0.0 9.0
22  1 1 2   0   0  6.821774e+02  2.303003e+03 -2.052592e+03  3.159482e+03 0.0 0.0 9.0
 2  1 1 2 103   0 -6.821774e+02 -2.303003e+03 -1.508137e+03  2.836136e+03 0.0022 0.0 9.0
#pdf 2 21 1.872991e-01 7.351036e-01 5000.0 3.994841e-01 5.379152e-03
</event>
<event>
4 7 1.0 5000.0 7.905138e-03 7.739137e-02
 2 -1 0 0 101   0  0.000000e+00  0.000000e+00  1.808541e+03  1.808541e+03 0.0 0.0 9.0
21 -1 0 0 103 101  0.000000e+00  0.000000e+00 -2.875473e+03  2.875473e+03 0.0 0.0 9.0
 2  1 1 2 103   0 -3.163036e+02  2.258141e+03 -4.984570e+02  2.334033e+03 0.0022 0.0 9.0
22  1 1 2   0   0  3.163036e+02 -2.258141e+03 -5.684746e+02  2.349982e+03 0.0 0.0 9.0
#pdf 2 21 2.782371e-01 4.423805e-01 5000.0 2.765306e-01 1.078470e-01
</event>
<event>
4 7 1.0 5000.0 7.905138e-03 7.739137e-02
 2 -1 0 0 101   0  0.000000e+00  0.000000e+00  2.546849e+03  2.546849e+03 0.0 0.0 9.0
21 -1 0 0 103 101  0.000000e+00  0.000000e+00 -2.236167e+03  2.236167e+03 0.0 0.0 9.0
 2  1 1 2 103   0  9.848257e+00  2.146024e+03 -8.907375e+02  2.323560e+03 0.0022 0.0 9.0
22  1 1 2   0   0 -9.848257e+00 -2.146024e+03  1.201420e+03  2.459456e+03 0.0 0.0 9.0
#pdf 2 21 3.918229e-01 3.440257e-01 5000.0 1.500099e-01 1.981202e-01
</event>
<event>
4 7 1.0 5000.0 7.905138e-03 7.739137e-02
21 -1 0 0 103 101  0.000000e+00  0.000000e+00  4.149519e+03  4.149519e+03 0.0 0.0 9.0
 2 -1 0 0 101   0  0.000000e+00  0.000000e+00 -1.575914e+03  1.575914e+03 0.0 0.0 9.0
 2  1 1 2 103   0  1.849038e+03  1.054715e+03  2.873107e+03  3.575767e+03 0.0022 0.0 9.0
22  1 1 2   0   0 -1.849038e+03 -1.054715e+03 -2.995022e+02  2.149667e+03 0.0 0.0 9.0
#pdf 21 2 6.383876e-01 2.424484e-01 5000.0 3.393601e-04 7.331874e-02
</event>
<event>
4 7 1.0 5000.0 7.905138e-03 7.739137e-02
 2 -1 0 0 101   0  0.000000e+00  0.000000e+00  2.381145e+03  2.381145e+03 0.0 0.0 9.0
21 -1 0 0 103 101  0.000000e+00  0.000000e+00 -2.603780e+03  2.603780e+03 0.0 0.0 9.0
 2  1 1 2 103   0 -1.324888e+03 -4.910674e+01  1.998449e+03  2.398237e+03 0.0022 0.0 9.0
22  1 1 2   0   0  1.324888e+03  4.910674e+01 -2.221085e+03  2.586689e+03 0.0 0.0 9.0
#pdf 2 21 3.663300e-01 4.005816e-01 5000.0 1.746650e-01 1.420562e-01
</event>
<event>
4 7 1.0 5000.0 7.905138e-03 7.739137e-02
21 -1 0 0 103 101  0.000000e+00  0.000000e+00  2.723047e+03  2.723047e+03 0.0 0.0 9.0
 2 -1 0 0 101   0  0.000000e+00  0.000000e+00 -2.372071e+03  2.372071e+03 0.0 0.0 9.0
22  1 1 2   0   0  2.096425e+03 -1.158074e+03 -6.769059e+02  2.488842e+03 0.0 0.0 9.0
 2  1 1 2 103   0 -2.096425e+03  1.158074e+03  1.027882e+03  2.606276e+03 0.0022 0.0 9.0
#pdf 21 2 4.189303e-01 3.649340e-01 5000.0 8.241928e-03 1.623394e-02
</event>
<event>
4 7 1.0 5000.0 7.905138e-03 7.739137e-02
21 -1 0 0 103 101  0.000000e+00  0.000000e+00  1.920943e+03  1.920943e+03 0.0 0.0 9.0
 2 -1 0 0 101   0  0.000000e+00  0.000000e+00 -3.516840e+03  3.516840e+03 0.0 0.0 9.0
22  1 1 2   0   0  2.102497e+03  8.677864e+02 -2.113704e+03  3.105043e+03 0.0 0.0 9.0
 2  1 1 2 103   0 -2.102497e+03 -8.677864e+02  5.178068e+02  2.332739e+03 0.0022 0.0 9.0
#pdf 21 2 2.955296e-01 5.410523e-01 5000.0 3.808394e-02 1.575637e-03
</event>
<event>
4 7 1.0 5000.0 7.905138e-03 7.739137e-02
21 -1 0 0 103 101  0.000000e+00  0.000000e+00  3.671849e+03  3.671849e+03 0.0 0.0 9.0
 2 -1 0 0 101   0  0.000000e+00  0.000000e+00 -1.744569e+03  1.744569e+03 0.0 0.0 9.0
22  1 1 2   0   0  2.521041e+03 -7.151989e+01  7.365772e+02  2.627415e+03 0.0 0.0 9.0
 2  1 1 2 103   0 -2.521041e+03  7.151989e+01  1.190703e+03  2.789003e+03 0.0022 0.0 9.0
#pdf 21 2 5.648999e-01 2.683953e-01 5000.0 1.108238e-03 5.308381e-02
</event>
<event>
4 7 1.0 5000.0 7.905138e-03 7.739137e-02
21 -1 0 0 103 101  0.000000e+00  0.000000e+00  2.666365e+03  2.666365e+03 0.0 0.0 9.0
 2 -1 0 0 101   0  0.000000e+00  0.000000e+00 -2.327250e+03  2.327250e+03 0.0 0.0 9.0
22  1 1 2   0   0 -1.499007e+01 -2.059924e+03 -1.234321e+03  2.401470e+03 0.0 0.0 9.0
 2  1 1 2 103   0  1.499007e+01  2.059924e+03  1.573436e+03  2.592144e+03 0.0022 0.0 9.0
#pdf 21 2 4.102100e-01 3.580384e-01 5000.0 9.209128e-03 1.766823e-02
</event>
<event>
4 7 1.0 5000.0 7.905138e-03 7.739137e-02
 2 -1 0 0 101   0  0.000000e+00  0.000000e+00  1.721301e+03  1.721301e+03 0.0 0.0 9.0
21 -1 0 0 103 101  0.000000e+00  0.000000e+00 -3.850416e+03  3.850416e+03 0.0 0.0 9.0
22  1 1 2   0   0  1.581887e+03 -1.742723e+03  6.431803e+01  2.354482e+03 0.0 0.0 9.0
 2  1 1 2 103   0 -1.581887e+03  1.742723e+03 -2.193433e+03  3.217234e+03 0.0022 0.0 9.0
#pdf 2 21 2.648155e-01 5.923716e-01 5000.0 2.939695e-01 3.114716e-02
</event>
<event>
4 7 1.0 5000.0 7.905138e-03 7.739137e-02
21 -1 0 0 103 101  0.000000e+00  0.000000e+00  2.982727e+03  2.982727e+03 0.0 0.0 9.0
 2 -1 0 0 101   0  0.000000e+00  0.000000e+00 -2.081345e+03  2.081345e+03 0.0 0.0 9.0
 2  1 1 2 103   0 -3.088236e+02 -5.587855e+02 -1.996809e+03  2.096392e+03 0.0022 0.0 9.0
22  1 1 2   0   0  3.088236e+02  5.587855e+02  2.898191e+03  2.967680e+03 0.0 0.0 9.0
#pdf 21 2 4.588811e-01 3.202069e-01 5000.0 4.908164e-03 2.812152e-02
</event>
<event>
4 7 1.0 5000.0 7.905138e-03 7.739137e-02
21 -1 0 0 103 101  0.000000e+00  0.000000e+00  3.336757e+03  3.336757e+03 0.0 0.0 9.0
 2 -1 0 0 101   0  0.000000e+00  0.000000e+00 -1.878107e+03  1.878107e+03 0.0 0.0 9.0
22  1 1 2   0   0  1.381879e+03 -9.026756e+01  2.901464e+03  3.215001e+03 0.0 0.0 9.0
 2  1 1 2 103   0 -1.381879e+03  9.026756e+01 -1.442814e+03  1.999863e+03 0.0022 0.0 9.0
#pdf 21 2 5.133473e-01 2.889395e-01 5000.0 2.341469e-03 4.126547e-02
</event>
<event>
4 7 1.0 5000.0 7.905138e-03 7.739137e-02
 2 -1 0 0 101   0  0.000000e+00  0.000000e+00  3.306801e+03  3.306801e+03 0.0 0.0 9.0
21 -1 0 0 103 101  0.000000e+00  0.000000e+00 -1.908729e+03  1.908729e+03 0.0 0.0 9.0
 2  1 1 2 103   0 -2.395259e+03  5.648221e+02  1.743663e+02  2.467123e+03 0.0022 0.0 9.0
22  1 1 2   0   0  2.395259e+03 -5.648221e+02  1.223705e+03  2.748407e+03 0.0 0.0 9.0
#pdf 2 21 5.087385e-01 2.936507e-01 5000.0 6.571557e-02 2.570309e-01
</event>
<event>
4 7 1.0 5000.0 7.905138e-03 7.739137e-02
21 -1 0 0 103 101  0.000000e+00  0.000000e+00  1.842123e+03  1.842123e+03 0.0 0.0 9.0
 2 -1 0 0 101   0  0.000000e+00  0.000000e+00 -3.366825e+03  3.366825e+03 0.0 0.0 9.0
 2  1 1 2 103   0  1.108942e+03  8.625008e+02 -2.912858e+03  3.233945e+03 0.0022 0.0 9.0
22  1 1 2   0   0 -1.108942e+03 -8.625008e+02  1.388156e+03  1.975003e+03 0.0 0.0 9.0
#pdf 21 2 2.834035e-01 5.179731e-01 5000.0 4.413611e-02 2.193703e-03
</event>
<event>
4 7 1.0 5000.0 7.905138e-03 7.739137e-02
21 -1 0 0 103 101  0.000000e+00  0.000000e+00  1.511113e+03  1.511113e+03 0.0 0.0 9.0
 2 -1 0 0 101   0  0.000000e+00  0.000000e+00 -4.424139e+03  4.424139e+03 0.0 0.0 9.0
 2  1 1 2 103   0 -1.576638e+03 -1.456182e+03 -3.111468e+03  3.779879e+03 0.0022 0.0 9.0
22  1 1 2   0   0  1.576638e+03  1.456182e+03  1.984422e+02  2.155373e+03 0.0 0.0 9.0
#pdf 21 2 2.324789e-01 6.806368e-01 5000.0 8.302998e-02 1.578159e-04
</event>
<event>
4 7 1.0 5000.0 7.905138e-03 7.739137e-02
 2 -1 0 0 101   0  0.000000e+00  0.000000e+00  1.640496e+03  1.640496e+03 0.0 0.0 9.0
21 -1 0 0 103 101  0.000000e+00  0.000000e+00 -3.810789e+03  3.810789e+03 0.0 0.0 9.0
22  1 1 2   0   0  5.097406e+02 -2.197472e+03 -2.260689e+03  3.193656e+03 0.0 0.0 9.0
 2  1 1 2 103   0 -5.097406e+02  2.197472e+03  9.039602e+01  2.257630e+03 0.0022 0.0 9.0
#pdf 2 21 2.523840e-01 5.862753e-01 5000.0 3.104044e-01 3.306862e-02
</event>
<event>
4 7 1.0 5000.0 7.905138e-03 7.739137e-02
21 -1 0 0 103 101  0.000000e+00  0.000000e+00  3.248970e+03  3.248970e+03 0.0 0.0 9.0
 2 -1 0 0 101   0  0.000000e+00  0.000000e+00 -1.932046e+03  1.932046e+03 0.0 0.0 9.0
22  1 1 2   0   0 -1.996307e+03  3.428301e+02  2.183117e+03  2.978049e+03 0.0 0.0 9.0
 2  1 1 2 103   0  1.996307e+03 -3.428301e+02 -8.661933e+02  2.202967e+03 0.0022 0.0 9.0
#pdf 21 2 4.998416e-01 2.972378e-01 5000.0 2.824549e-03 3.728610e-02
</event>
<event>
4 7 1.0 5000.0 7.905138e-03 7.739137e-02
21 -1 0 0 103 101  0.000000e+00  0.000000e+00  5.127953e+03  5.127953e+03 0.0 0.0 9.0
 2 -1 0 0 101   0  0.000000e+00  0.000000e+00 -1.212694e+03  1.212694e+03 0.0 0.0 9.0
22  1 1 2   0   0  2.371428e+03 -4.535366e+02  1.164432e+03  2.680535e+03 0.0 0.0 9.0
 2  1 1 2 103   0 -2.371428e+03  4.535366e+02  2.750828e+03  3.660112e+03 0.0022 0.0 9.0
#pdf 21 2 7.889159e-01 1.865683e-01 5000.0 1.388911e-05 1.502720e-01
</event>
<event>
4 7 1.0 5000.0 7.905138e-03 7.739137e-02
21 -1 0 0 103 101  0.000000e+00  0.000000e+00  3.947562e+03  3.947562e+03 0.0 0.0 9.0
 2 -1 0 0 101   0  0.000000e+00  0.000000e+00 -1.367463e+03  1.367463e+03 0.0 0.0 9.0
22  1 1 2   0   0  8.154964e+02  1.284924e+03 -7.180023e+02  1.682733e+03 0.0 0.0 9.0
 2  1 1 2 103   0 -8.154964e+02 -1.284924e+03  3.298102e+03  3.632291e+03 0.0022 0.0 9.0
#pdf 21 2 6.073172e-01 2.103789e-01 5000.0 5.706917e-04 1.099884e-01
</event>
<event>
4 7 1.0 5000.0 7.905138e-03 7.739137e-02
 2 -1 0 0 101   0  0.000000e+00  0.000000e+00  2.476011e+03  2.476011e+03 0.0 0.0 9.0
21 -1 0 0 103 101  0.000000e+00  0.000000e+00 -2.526287e+03  2.526287e+03 0.0 0.0 9.0
22  1 1 2   0   0  1.263461e+03 -3.817861e+02 -2.149633e+03  2.522502e+03 0.0 0.0 9.0
 2  1 1 2 103   0 -1.263461e+03  3.817861e+02  2.099356e+03  2.479796e+03 0.0022 0.0 9.0
#pdf 2 21 3.809247e-01 3.886596e-01 5000.0 1.602720e-01 1.529441e-01
</event>
<event>
4 7 1.0 5000.0 7.905138e-03 7.739137e-02
 2 -1 0 0 101   0  0.000000e+00  0.000000e+00  1.215421e+03  1.215421e+03 0.0 0.0 9.0
21 -1 0 0 103 101  0.000000e+00  0.000000e+00 -4.869088e+03  4.869088e+03 0.0 0.0 9.0
22  1 1 2   0   0  5.993205e+02  1.870137e+03 -3.131964e+01  1.964072e+03 0.0 0.0 9.0
 2  1 1 2 103   0 -5.993205e+02 -1.870137e+03 -3.622348e+03  4.120437e+03 0.0022 0.0 9.0
#pdf 2 21 1.869878e-01 7.490905e-01 5000.0 3.999080e-01 4.306860e-03
</event>
<event>
4 7 1.0 5000.0 7.905138e-03 7.739137e-02
21 -1 0 0 103 101  0.000000e+00  0.000000e+00  1.206176e+03  1.206176e+03 0.0 0.0 9.0
 2 -1 0 0 101   0  0.000000e+00  0.000000e+00 -5.200811e+03  5.200811e+03 0.0 0.0 9.0
 2  1 1 2 103   0  1.803270e+03  6.228115e+02 -4.072914e+03  4.497588e+03 0.0022 0.0 9.0
22  1 1 2   0   0 -1.803270e+03 -6.228115e+02  7.827916e+01  1.909399e+03 0.0 0.0 9.0
#pdf 21 2 1.855656e-01 8.001247e-01 5000.0 1.523102e-01 1.020683e-05
</event>
<event>
4 7 1.0 5000.0 7.905138e-03 7.739137e-02
21 -1 0 0 103 101  0.000000e+00  0.000000e+00  2.471814e+03  2.471814e+03 0.0 0.0 9.0
 2 -1 0 0 101   0  0.000000e+00  0.000000e+00 -2.431560e+03  2.431560e+03 0.0 0.0 9.0
 2  1 1 2 103   0  1.082956e+03 -1.344586e+03 -1.720523e+03  2.437397e+03 0.0022 0.0 9.0
22  1 1 2   0   0 -1.082956e+03  1.344586e+03  1.760777e+03  2.465977e+03 0.0 0.0 9.0
#pdf 21 2 3.802791e-01 3.740862e-01 5000.0 1.342897e-02 1.449486e-02
</event>
<event>
4 7 1.0 5000.0 7.905138e-03 7.739137e-02
 2 -1 0 0 101   0  0.000000e+00  0.000000e+00  3.666085e+03  3.666085e+03 0.0 0.0 9.0
21 -1 0 0 103 101  0.000000e+00  0.000000e+00 -1.238224e+03  1.238224e+03 0.0 0.0 9.0
 2  1 1 2 103   0 -1.848667e+03 -5.324468e+02  1.601179e+02  1.930468e+03 0.0022 0.0 9.0
22  1 1 2   0   0  1.848667e+03  5.324468e+02  2.267744e+03  2.973841e+03 0.0 0.0 9.0
#pdf 2 21 5.640131e-01 1.904959e-01 5000.0 4.084235e-02 3.951342e-01
</event>
<event>
4 7 1.0 5000.0 7.905138e-03 7.739137e-02
21 -1 0 0 103 101  0.000000e+00  0.000000e+00  4.537066e+03  4.537066e+03 0.0 0.0 9.0
 2 -1 0 0 101   0  0.000000e+00  0.000000e+00 -1.325805e+03  1.325805e+03 0.0 0.0 9.0
 2  1 1 2 103   0 -1.230145e+03 -2.115137e+03  1.404898e+03  2.821489e+03 0.0022 0.0 9.0
22  1 1 2   0   0  1.230145e+03  2.115137e+03  1.806363e+03  3.041383e+03 0.0 0.0 9.0
#pdf 21 2 6.980102e-01 2.039701e-01 5000.0 1.126279e-04 1.194332e-01
</event>
<event>
4 7 1.0 5000.0 7.905138e-03 7.739137e-02
21 -1 0 0 103 101  0.000000e+00  0.000000e+00  1.462438e+03  1.462438e+03 0.0 0.0 9.0
 2 -1 0 0 101   0  0.000000e+00  0.000000e+00 -4.276947e+03  4.276947e+03 0.0 0.0 9.0
 2  1 1 2 103   0  2.804681e+02 -1.677893e+03  6.962809e+02  1.838149e+03 0.0022 0.0 9.0
22  1 1 2   0   0 -2.804681e+02  1.677893e+03 -3.510791e+03  3.901235e+03 0.0 0.0 9.0
#pdf 21 2 2.249904e-01 6.579919e-01 5000.0 9.125741e-02 2.405113e-04
</event>
<event>
4 7 1.0 5000.0 7.905138e-03 7.739137e-02
 2 -1 0 0 101   0  0.000000e+00  0.000000e+00  1.535546e+03  1.535546e+03 0.0 0.0 9.0
21 -1 0 0 103 101  0.000000e+00  0.000000e+00 -4.040243e+03  4.040243e+03 0.0 0.0 9.0
 2  1 1 2 103   0  1.587816e+03 -1.249756e+03  3.777150e+02  2.055655e+03 0.0022 0.0 9.0
22  1 1 2   0   0 -1.587816e+03  1.249756e+03 -2.882411e+03  3.520134e+03 0.0 0.0 9.0
#pdf 2 21 2.362379e-01 6.215758e-01 5000.0 3.321852e-01 2.306200e-02
</event>
<event>
4 7 1.0 5000.0 7.905138e-03 7.739137e-02
 2 -1 0 0 101   0  0.000000e+00  0.000000e+00  2.319324e+03  2.319324e+03 0.0 0.0 9.0
21 -1 0 0 103 101  0.000000e+00  0.000000e+00 -2.701652e+03  2.701652e+03 0.0 0.0 9.0
22  1 1 2   0   0  3.181739e+02  1.163257e+03 -2.391088e+03  2.678004e+03 0.0 0.0 9.0
 2  1 1 2 103   0 -3.181739e+02 -1.163257e+03  2.008760e+03  2.342972e+03 0.0022 0.0 9.0
#pdf 2 21 3.568191e-01 4.156388e-01 5000.0 1.844572e-01 1.290178e-01
</event>
<event>
4 7 1.0 5000.0 7.905138e-03 7.739137e-02
21 -1 0 0 103 101  0.000000e+00  0.000000e+00  3.285503e+03  3.285503e+03 0.0 0.0 9.0
 2 -1 0 0 101   0  0.000000e+00  0.000000e+00 -1.857071e+03  1.857071e+03 0.0 0.0 9.0
 2  1 1 2 103   0  1.809656e+03  2.403025e+01 -1.035712e+03  2.085217e+03 0.0022 0.0 9.0
22  1 1 2   0   0 -1.809656e+03 -2.403025e+01  2.464143e+03  3.057357e+03 0.0 0.0 9.0
#pdf 21 2 5.054620e-01 2.857033e-01 5000.0 2.612960e-03 4.291571e-02
</event>
<event>
4 7 1.0 5000.0 7.905138e-03 7.739137e-02
 2 -1 0 0 101   0  0.000000e+00  0.000000e+00  2.045336e+03  2.045336e+03 0.0 0.0 9.0
21 -1 0 0 103 101  0.000000e+00  0.000000e+00 -2.902478e+03  2.902478e+03 0.0 0.0 9.0
22  1 1 2   0   0 -1.724171e+03  1.248349e+03  7.751251e+02  2.265383e+03 0.0 0.0 9.0
 2  1 1 2 103   0  1.724171e+03 -1.248349e+03 -1.632267e+03  2.682431e+03 0.0022 0.0 9.0
#pdf 2 21 3.146671e-01 4.465351e-01 5000.0 2.315114e-01 1.047632e-01
</event>
<event>
4 7 1.0 5000.0 7.905138e-03 7.739137e-02
21 -1 0 0 103 101  0.000000e+00  0.000000e+00  1.623500e+03  1.623500e+03 0.0 0.0 9.0
 2 -1 0 0 101   0  0.000000e+00  0.000000e+00 -2.776096e+03  2.776096e+03 0.0 0.0 9.0
22  1 1 2   0   0 -1.544265e+03  6.590073e+02  7.699294e+02  1.847116e+03 0.0 0.0 9.0
 2  1 1 2 103   0  1.544265e+03 -6.590073e+02 -1.922526e+03  2.552480e+03 0.0022 0.0 9.0
#pdf 21 2 2.497692e-01 4.270917e-01 5000.0 6.692627e-02 7.423356e-03
</event>
<event>
4 7 1.0 5000.0 7.905138e-03 7.739137e-02
 2 -1 0 0 101   0  0.000000e+00  0.000000e+00  4.002502e+03  4.002502e+03 0.0 0.0 9.0
21 -1 0 0 103 101  0.000000e+00  0.000000e+00 -1.601738e+03  1.601738e+03 0.0 0.0 9.0
22  1 1 2   0   0  2.404401e+03 -7.873029e+02  1.089893e+03  2.754788e+03 0.0 0.0 9.0
 2  1 1 2 103   0 -2.404401e+03  7.873029e+02  1.310871e+03  2.849451e+03 0.0022 0.0 9.0
#pdf 2 21 6.157695e-01 2.464212e-01 5000.0 2.453047e-02 3.184392e-01
</event>
<event>
4 7 1.0 5000.0 7.905138e-03 7.739137e-02
21 -1 0 0 103 101  0.000000e+00  0.000000e+00  3.146858e+03  3.146858e+03 0.0 0.0 9.0
 2 -1 0 0 101   0  0.000000e+00  0.000000e+00 -1.973522e+03  1.973522e+03 0.0 0.0 9.0
22  1 1 2   0   0  5.726894e+02 -1.286798e+03  2.698731e+03  3.044170e+03 0.0 0.0 9.0
 2  1 1 2 103   0 -5.726894e+02  1.286798e+03 -1.525395e+03  2.076211e+03 0.0022 0.0 9.0
#pdf 21 2 4.841321e-01 3.036188e-01 5000.0 3.500430e-03 3.448317e-02
</event>
<event>
4 7 1.0 5000.0 7.905138e-03 7.739137e-02
 2 -1 0 0 101   0  0.000000e+00  0.000000e+00  2.028425e+03  2.028425e+03 0.0 0.0 9.0
21 -1 0 0 103 101  0.000000e+00  0.000000e+00 -3.125154e+03  3.125154e+03 0.0 0.0 9.0
22  1 1 2   0   0  3.792576e+02 -1.935259e+03 -2.150331e+03  2.917702e+03 0.0 0.0 9.0
 2  1 1 2 103   0 -3.792576e+02  1.935259e+03  1.053602e+03  2.235876e+03 0.0022 0.0 9.0
#pdf 2 21 3.120653e-01 4.807929e-01 5000.0 2.345984e-01 8.170750e-02
</event>
<event>
4 7 1.0 5000.0 7.905138e-03 7.739137e-02
21 -1 0 0 103 101  0.000000e+00  0.000000e+00  3.344113e+03  3.344113e+03 0.0 0.0 9.0
 2 -1 0 0 101   0  0.000000e+00  0.000000e+00 -1.728759e+03  1.728759e+03 0.0 0.0 9.0
22  1 1 2   0   0  1.746263e+03 -1.573019e+03  1.342820e+03  2.706841e+03 0.0 0.0 9.0
 2  1 1 2 103   0 -1.746263e+03  1.573019e+03  2.725342e+02  2.366030e+03 0.0022 0.0 9.0
#pdf 21 2 5.144789e-01 2.659629e-01 5000.0 2.304608e-03 5.470046e-02
</event>
<event>
4 7 1.0 5000.0 7.905138e-03 7.739137e-02
 2 -1 0 0 101   0  0.000000e+00  0.000000e+00  2.321172e+03  2.321172e+03 0.0 0.0 9.0
21 -1 0 0 103 101  0.000000e+00  0.000000e+00 -2.751348e+03  2.751348e+03 0.0 0.0 9.0
 2  1 1 2 103   0 -8.032964e+02  1.265252e+03  1.827018e+03  2.363079e+03 0.0022 0.0 9.0
22  1 1 2   0   0  8.032964e+02 -1.265252e+03 -2.257194e+03  2.709441e+03 0.0 0.0 9.0
#pdf 2 21 3.571034e-01 4.232843e-01 5000.0 1.841601e-01 1.227024e-01
</event>
<event>
4 7 1.0 5000.0 7.905138e-03 7.739137e-02
 2 -1 0 0 101   0  0.000000e+00  0.000000e+00  1.918172e+03  1.918172e+03 0.0 0.0 9.0
21 -1 0 0 103 101  0.000000e+00  0.000000e+00 -3.211801e+03  3.211801e+03 0.0 0.0 9.0
22  1 1 2   0   0 -9.973503e+02  1.050849e+03 -2.729511e+03  3.090182e+03 0.0 0.0 9.0
 2  1 1 2 103   0  9.973503e+02 -1.050849e+03  1.435882e+03  2.039791e+03 0.0022 0.0 9.0
#pdf 2 21 2.951033e-01 4.941232e-01 5000.0 2.552259e-01 7.377389e-02
</event>
<event>
4 7 1.0 5000.0 7.905138e-03 7.739137e-02
21 -1 0 0 103 101  0.000000e+00  0.000000e+00  3.844674e+03  3.844674e+03 0.0 0.0 9.0
 2 -1 0 0 101   0  0.000000e+00  0.000000e+00 -1.638933e+03  1.638933e+03 0.0 0.0 9.0
 2  1 1 2 103   0 -1.698690e+03 -1.367840e+03 -2.546241e+02  2.195761e+03 0.0022 0.0 9.0
22  1 1 2   0   0  1.698690e+03  1.367840e+03  2.460365e+03  3.287846e+03 0.0 0.0 9.0
#pdf 21 2 5.914884e-01 2.521435e-01 5000.0 7.345551e-04 6.499154e-02
</event>
<event>
4 7 1.0 5000.0 7.905138e-03 7.739137e-02
21 -1 0 0 103 101  0.000000e+00  0.000000e+00  1.532892e+03  1.532892e+03 0.0 0.0 9.0
 2 -1 0 0 101   0  0.000000e+00  0.000000e+00 -4.166649e+03  4.166649e+03 0.0 0.0 9.0
22  1 1 2   0   0 -1.166615e+03  1.387241e+03 -3.302759e+03  3.767446e+03 0.0 0.0 9.0
 2  1 1 2 103   0  1.166615e+03 -1.387241e+03  6.690020e+02  1.932095e+03 0.0022 0.0 9.0
#pdf 21 2 2.358295e-01 6.410230e-01 5000.0 7.964734e-02 3.242535e-04
</event>
<event>
4 7 1.0 5000.0 7.905138e-03 7.739137e-02
 2 -1 0 0 101   0  0.000000e+00  0.000000e+00  1.554362e+03  1.554362e+03 0.0 0.0 9.0
21 -1 0 0 103 101  0.000000e+00  0.000000e+00 -3.990386e+03  3.990386e+03 0.0 0.0 9.0
22  1 1 2   0   0 -8.579754e+02 -8.906747e+02 -3.624424e+03  3.829605e+03 0.0 0.0 9.0
 2  1 1 2 103   0  8.579754e+02  8.906747e+02  1.188400e+03  1.715143e+03 0.0022 0.0 9.0
#pdf 2 21 2.391326e-01 6.139056e-01 5000.0 3.282433e-01 2.501607e-02
</event>
<event>
4 7 1.0 5000.0 7.905138e-03 7.739137e-02
21 -1 0 0 103 101  0.000000e+00  0.000000e+00  1.896202e+03  1.896202e+03 0.0 0.0 9.0
 2 -1 0 0 101   0  0.000000e+00  0.000000e+00 -3.307090e+03  3.307090e+03 0.0 0.0 9.0
22  1 1 2   0   0  3.355149e+02 -8.974250e+02 -3.109144e+03  3.253416e+03 0.0 0.0 9.0
 2  1 1 2 103   0 -3.355149e+02  8.974250e+02  1.698256e+03  1.949876e+03 0.0022 0.0 9.0
#pdf 21 2 2.917234e-01 5.087831e-01 5000.0 3.989715e-02 2.495306e-03
</event>
<event>
4 7 1.0 5000.0 7.905138e-03 7.739137e-02
21 -1 0 0 103 101  0.000000e+00  0.000000e+00  1.715038e+03  1.715038e+03 0.0 0.0 9.0
 2 -1 0 0 101   0  0.000000e+00  0.000000e+00 -3.223733e+03  3.223733e+03 0.0 0.0 9.0
22  1 1 2   0   0 -1.512452e+03 -8.985403e+01 -2.642737e+03  3.046251e+03 0.0 0.0 9.0
 2  1 1 2 103   0  1.512452e+03  8.985403e+01  1.134041e+03  1.892521e+03 0.0022 0.0 9.0
#pdf 21 2 2.638520e-01 4.959590e-01 5000.0 5.614743e-02 2.979956e-03
</event>
<event>
4 7 1.0 5000.0 7.905138e-03 7.739137e-02
 2 -1 0 0 101   0  0.000000e+00  0.000000e+00  3.079125e+03  3.079125e+03 0.0 0.0 9.0
21 -1 0 0 103 101  0.000000e+00  0.000000e+00 -2.040659e+03  2.040659e+03 0.0 0.0 9.0
22  1 1 2   0   0 -4.219643e+02 -1.849512e+03 -1.154053e+03  2.220492e+03 0.0 0.0 9.0
 2  1 1 2 103   0  4.219643e+02  1.849512e+03  2.192519e+03  2.899291e+03 0.0022 0.0 9.0
#pdf 2 21 4.737115e-01 3.139475e-01 5000.0 8.615771e-02 2.323631e-01
</event>
<event>
4 7 1.0 5000.0 7.905138e-03 7.739137e-02
21 -1 0 0 103 101  0.000000e+00  0.000000e+00  2.479815e+03  2.479815e+03 0.0 0.0 9.0
 2 -1 0 0 101   0  0.000000e+00  0.000000e+00 -2.653072e+03  2.653072e+03 0.0 0.0 9.0
22  1 1 2   0   0  8.301925e+02  2.406008e+03  2.314067e+02  2.555708e+03 0.0 0.0 9.0
 2  1 1 2 103   0 -8.301925e+02 -2.406008e+03 -4.046634e+02  2.577178e+03 0.0022 0.0 9.0
#pdf 21 2 3.815100e-01 4.081649e-01 5000.0 1.322400e-02 9.452213e-03
</event>
<event>
4 7 1.0 5000.0 7.905138e-03 7.739137e-02
 2 -1 0 0 101   0  0.000000e+00  0.000000e+00  3.941220e+03  3.941220e+03 0.0 0.0 9.0
21 -1 0 0 103 101  0.000000e+00  0.000000e+00 -1.538570e+03  1.538570e+03 0.0 0.0 9.0
 2  1 1 2 103   0 -1.821803e+03 -1.120297e+03  2.559406e+03  3.335355e+03 0.0022 0.0 9.0
22  1 1 2   0   0  1.821803e+03  1.120297e+03 -1.567566e+02  2.144435e+03 0.0 0.0 9.0
#pdf 2 21 6.063415e-01 2.367031e-01 5000.0 2.705980e-02 3.315502e-01
</event>
<event>
4 7 1.0 5000.0 7.905138e-03 7.739137e-02
 2 -1 0 0 101   0  0.000000e+00  0.000000e+00  1.790780e+03  1.790780e+03 0.0 0.0 9.0
21 -1 0 0 103 101  0.000000e+00  0.000000e+00 -3.497023e+03  3.497023e+03 0.0 0.0 9.0
22  1 1 2   0   0  1.058366e+03  2.533529e+02 -3.233930e+03  3.412130e+03 0.0 0.0 9.0
 2  1 1 2 103   0 -1.058366e+03 -2.533529e+02  1.527687e+03  1.875674e+03 0.0022 0.0 9.0
#pdf 2 21 2.755047e-01 5.380036e-01 5000.0 2.800470e-01 5.148425e-02
</event>
<event>
4 7 1.0 5000.0 7.905138e-03 7.739137e-02
21 -1 0 0 103 101  0.000000e+00  0.000000e+00  2.051797e+03  2.051797e+03 0.0 0.0 9.0
 2 -1 0 0 101   0  0.000000e+00  0.000000e+00 -2.899840e+03  2.899840e+03 0.0 0.0 9.0
 2  1 1 2 103   0 -9.449886e+02  1.451649e+03  1.319173e+03  2.177270e+03 0.0022 0.0 9.0
22  1 1 2   0   0  9.449886e+02 -1.451649e+03 -2.167216e+03  2.774367e+03 0.0 0.0 9.0
#pdf 21 2 3.156611e-01 4.461292e-01 5000.0 2.973736e-02 5.799542e-03
</event>
<event>
4 7 1.0 5000.0 7.905138e-03 7.739137e-02
21 -1 0 0 103 101  0.000000e+00  0.000000e+00  2.096541e+03  2.096541e+03 0.0 0.0 9.0
 2 -1 0 0 101   0  0.000000e+00  0.000000e+00 -2.993753e+03  2.993753e+03 0.0 0.0 9.0
 2  1 1 2 103   0  8.678030e+02 -8.917929e+01 -2.834468e+03  2.965677e+03 0.0022 0.0 9.0
22  1 1 2   0   0 -8.678030e+02  8.917929e+01  1.937256e+03  2.124617e+03 0.0 0.0 9.0
#pdf 21 2 3.225448e-01 4.605774e-01 5000.0 2.732806e-02 4.798471e-03
</event>
<event>
4 7 1.0 5000.0 7.905138e-03 7.739137e-02
 2 -1 0 0 101   0  0.000000e+00  0.000000e+00  4.124150e+03  4.124150e+03 0.0 0.0 9.0
21 -1 0 0 103 101  0.000000e+00  0.000000e+00 -1.533211e+03  1.533211e+03 0.0 0.0 9.0
 2  1 1 2 103   0 -1.983465e+03 -1.384709e+03  5.229289e+02  2.474875e+03 0.0022 0.0 9.0
22  1 1 2   0   0  1.983465e+03  1.384709e+03  2.068010e+03  3.182486e+03 0.0 0.0 9.0
#pdf 2 21 6.344847e-01 2.358787e-01 5000.0 2.002994e-02 3.326759e-01
</event>
<event>
4 7 1.0 5000.0 7.905138e-03 7.739137e-02
21 -1 0 0 103 101  0.000000e+00  0.000000e+00  2.066431e+03  2.066431e+03 0.0 0.0 9.0
 2 -1 0 0 101   0  0.000000e+00  0.000000e+00 -2.926600e+03  2.926600e+03 0.0 0.0 9.0
22  1 1 2   0   0 -1.617884e+03  9.719243e+02  1.170369e+03  2.220799e+03 0.0 0.0 9.0
 2  1 1 2 103   0  1.617884e+03 -9.719243e+02 -2.030538e+03  2.772231e+03 0.0022 0.0 9.0
#pdf 21 2 3.179124e-01 4.502461e-01 5000.0 2.892391e-02 5.499813e-03
</event>
<event>
4 7 1.0 5000.0 7.905138e-03 7.739137e-02
21 -1 0 0 103 101  0.000000e+00  0.000000e+00  1.968004e+03  1.968004e+03 0.0 0.0 9.0
 2 -1 0 0 101   0  0.000000e+00  0.000000e+00 -2.874987e+03  2.874987e+03 0.0 0.0 9.0
 2  1 1 2 103   0 -1.779851e+03  1.573921e+03 -3.379162e+02  2.399850e+03 0.0022 0.0 9.0
22  1 1 2   0   0  1.779851e+03 -1.573921e+03 -5.690668e+02  2.443140e+03 0.0 0.0 9.0
#pdf 21 2 3.027698e-01 4.423056e-01 5000.0 3.483669e-02 6.103456e-03
</event>
<event>
4 7 1.0 5000.0 7.905138e-03 7.739137e-02
21 -1 0 0 103 101  0.000000e+00  0.000000e+00  3.376787e+03  3.376787e+03 0.0 0.0 9.0
 2 -1 0 0 101   0  0.000000e+00  0.000000e+00 -1.807425e+03  1.807425e+03 0.0 0.0 9.0
22  1 1 2   0   0  1.270243e+03  6.592435e+02 -1.328201e+03  1.952495e+03 0.0 0.0 9.0
 2  1 1 2 103   0 -1.270243e+03 -6.592435e+02  2.897564e+03  3.231717e+03 0.0022 0.0 9.0
#pdf 21 2 5.195057e-01 2.780653e-01 5000.0 2.146595e-03 4.713407e-02
</event>
<event>
4 7 1.0 5000.0 7.905138e-03 7.739137e-02
 2 -1 0 0 101   0  0.000000e+00  0.000000e+00  1.778356e+03  1.778356e+03 0.0 0.0 9.0
21 -1 0 0 103 101  0.000000e+00  0.000000e+00 -3.333180e+03  3.333180e+03 0.0 0.0 9.0
 2  1 1 2 103   0  1.573047e+03  1.851564e+03 -9.427925e+02  2.606074e+03 0.0022 0.0 9.0
22  1 1 2   0   0 -1.573047e+03 -1.851564e+03 -6.120316e+02  2.505463e+03 0.0 0.0 9.0
#pdf 2 21 2.735933e-01 5.127970e-01 5000.0 2.825184e-01 6.359311e-02
</event>
<event>
4 7 1.0 5000.0 7.905138e-03 7.739137e-02
 2 -1 0 0 101   0  0.000000e+00  0.000000e+00  2.167571e+03  2.167571e+03 0.0 0.0 9.0
21 -1 0 0 103 101  0.000000e+00  0.000000e+00 -2.866568e+03  2.866568e+03 0.0 0.0 9.0
22  1 1 2   0   0 -1.141001e+03  4.600844e+02  1.839639e+03  2.213104e+03 0.0 0.0 9.0
 2  1 1 2 103   0  1.141001e+03 -4.600844e+02 -2.538637e+03  2.821035e+03 0.0022 0.0 9.0
#pdf 2 21 3.334724e-01 4.410105e-01 5000.0 2.097989e-01 1.088746e-01
</event>
<event>
4 7 1.0 5000.0 7.905138e-03 7.739137e-02
 2 -1 0 0 101   0  0.000000e+00  0.000000e+00  1.397843e+03  1.397843e+03 0.0 0.0 9.0
21 -1 0 0 103 101  0.000000e+00  0.000000e+00 -4.594271e+03  4.594271e+03 0.0 0.0 9.0
 2  1 1 2 103   0 -9.067752e+02 -8.232533e+02  1.024718e+03  1.596883e+03 0.0022 0.0 9.0
22  1 1 2   0   0  9.067752e+02  8.232533e+02 -4.221146e+03  4.395231e+03 0.0 0.0 9.0
#pdf 2 21 2.150528e-01 7.068109e-01 5000.0 3.612108e-01 8.148678e-03
</event>
<event>
4 7 1.0 5000.0 7.905138e-03 7.739137e-02
21 -1 0 0 103 101  0.000000e+00  0.000000e+00  2.249672e+03  2.249672e+03 0.0 0.0 9.0
 2 -1 0 0 101   0  0.000000e+00  0.000000e+00 -2.833871e+03  2.833871e+03 0.0 0.0 9.0
22  1 1 2   0   0 -9.507115e+02 -1.530513e+03 -2.072784e+03  2.746407e+03 0.0 0.0 9.0
 2  1 1 2 103   0  9.507115e+02  1.530513e+03  1.488584e+03  2.337136e+03 0.0022 0.0 9.0
#pdf 21 2 3.461033e-01 4.359802e-01 5000.0 2.047609e-02 6.625029e-03
</event>
<event>
4 7 1.0 5000.0 7.905138e-03 7.739137e-02
21 -1 0 0 103 101  0.000000e+00  0.000000e+00  1.856387e+03  1.856387e+03 0.0 0.0 9.0
 2 -1 0 0 101   0  0.000000e+00  0.000000e+00 -2.979707e+03  2.979707e+03 0.0 0.0 9.0
22  1 1 2   0   0 -1.877628e+03  1.369361e+03 -9.335639e+02  2.504432e+03 0.0 0.0 9.0
 2  1 1 2 103   0  1.877628e+03 -1.369361e+03 -1.897569e+02  2.331662e+03 0.0022 0.0 9.0
#pdf 21 2 2.855979e-01 4.584165e-01 5000.0 4.297068e-02 4.938656e-03
</event>
<event>
4 7 1.0 5000.0 7.905138e-03 7.739137e-02
 2 -1 0 0 101   0  0.000000e+00  0.000000e+00  2.567110e+03  2.567110e+03 0.0 0.0 9.0
21 -1 0 0 103 101  0.000000e+00  0.000000e+00 -1.817549e+03  1.817549e+03 0.0 0.0 9.0
 2  1 1 2 103   0  2.976437e+02  2.105850e+03 -8.553449e+00  2.126798e+03 0.0022 0.0 9.0
22  1 1 2   0   0 -2.976437e+02 -2.105850e+03  7.581148e+02  2.257861e+03 0.0 0.0 9.0
#pdf 2 21 3.949400e-01 2.796228e-01 5000.0 1.471503e-01 2.747553e-01
</event>
<event>
4 7 1.0 5000.0 7.905138e-03 7.739137e-02
21 -1 0 0 103 101  0.000000e+00  0.000000e+00  3.253768e+03  3.253768e+03 0.0 0.0 9.0
 2 -1 0 0 101   0  0.000000e+00  0.000000e+00 -1.670038e+03  1.670038e+03 0.0 0.0 9.0
 2  1 1 2 103   0 -1.499192e+03 -1.451641e+03  1.888953e+03  2.814779e+03 0.0022 0.0 9.0
22  1 1 2   0   0  1.499192e+03  1.451641e+03 -3.052224e+02  2.109028e+03 0.0 0.0 9.0
#pdf 21 2 5.005798e-01 2.569289e-01 5000.0 2.795795e-03 6.122024e-02
</event>
<event>
4 7 1.0 5000.0 7.905138e-03 7.739137e-02
 2 -1 0 0 101   0  0.000000e+00  0.000000e+00  4.172717e+03  4.172717e+03 0.0 0.0 9.0
21 -1 0 0 103 101  0.000000e+00  0.000000e+00 -1.491627e+03  1.491627e+03 0.0 0.0 9.0
22  1 1 2   0   0 -1.469283e+03  8.486472e+01 -9.463364e+02  1.749728e+03 0.0 0.0 9.0
 2  1 1 2 103   0  1.469283e+03 -8.486472e+01  3.627426e+03  3.914616e+03 0.0022 0.0 9.0
#pdf 2 21 6.419564e-01 2.294811e-01 5000.0 1.841716e-02 3.414404e-01
</event>
<event>
4 7 1.0 5000.0 7.905138e-03 7.739137e-02
21 -1 0 0 103 101  0.000000e+00  0.000000e+00  2.363387e+03  2.363387e+03 0.0 0.0 9.0
 2 -1 0 0 101   0  0.000000e+00  0.000000e+00 -2.471115e+03  2.471115e+03 0.0 0.0 9.0
 2  1 1 2 103   0 -1.393929e+03  1.969359e+03 -1.909610e+02  2.420306e+03 0.0022 0.0 9.0
22  1 1 2   0   0  1.393929e+03 -1.969359e+03  8.323283e+01  2.414196e+03 0.0 0.0 9.0
#pdf 21 2 3.635979e-01 3.801715e-01 5000.0 1.650413e-02 1.344701e-02
</event>
<event>
4 7 1.0 5000.0 7.905138e-03 7.739137e-02
 2 -1 0 0 101   0  0.000000e+00  0.000000e+00  3.958034e+03  3.958034e+03 0.0 0.0 9.0
21 -1 0 0 103 101  0.000000e+00  0.000000e+00 -1.575948e+03  1.575948e+03 0.0 0.0 9.0
22  1 1 2   0   0  9.563264e+02 -6.019863e+02  3.658610e+03  3.829148e+03 0.0 0.0 9.0
 2  1 1 2 103   0 -9.563264e+02  6.019863e+02 -1.276523e+03  1.704834e+03 0.0022 0.0 9.0
#pdf 2 21 6.089283e-01 2.424535e-01 5000.0 2.634767e-02 3.237568e-01
</event>
<event>
4 7 1.0 5000.0 7.905138e-03 7.739137e-02
21 -1 0 0 103 101  0.000000e+00  0.000000e+00  1.913633e+03  1.913633e+03 0.0 0.0 9.0
 2 -1 0 0 101   0  0.000000e+00  0.000000e+00 -3.289694e+03  3.289694e+03 0.0 0.0 9.0
22  1 1 2   0   0 -3.975762e+02 -1.871889e+03 -2.370661e+03  3.046649e+03 0.0 0.0 9.0
 2  1 1 2 103   0  3.975762e+02  1.871889e+03  9.945994e+02  2.156679e+03 0.0022 0.0 9.0
#pdf 21 2 2.944051e-01 5.061068e-01 5000.0 3.861395e-02 2.589710e-03
</event>
<event>
4 7 1.0 5000.0 7.905138e-03 7.739137e-02
21 -1 0 0 103 101  0.000000e+00  0.000000e+00  2.372796e+03  2.372796e+03 0.0 0.0 9.0
 2 -1 0 0 101   0  0.000000e+00  0.000000e+00 -2.650915e+03  2.650915e+03 0.0 0.0 9.0
22  1 1 2   0   0  8.861444e+02  3.714760e+01  2.210487e+03  2.381782e+03 0.0 0.0 9.0
 2  1 1 2 103   0 -8.861444e+02 -3.714760e+01 -2.488606e+03  2.641929e+03 0.0022 0.0 9.0
#pdf 21 2 3.650455e-01 4.078331e-01 5000.0 1.621151e-02 9.492199e-03
</event>
<event>
4 7 1.0 5000.0 7.905138e-03 7.739137e-02
 2 -1 0 0 101   0  0.000000e+00  0.000000e+00  1.156431e+03  1.156431e+03 0.0 0.0 9.0
21 -1 0 0 103 101  0.000000e+00  0.000000e+00 -4.808510e+03  4.808510e+03 0.0 0.0 9.0
 2  1 1 2 103   0 -2.291376e+03  5.528754e+02 -1.912119e+03  3.035173e+03 0.0022 0.0 9.0
22  1 1 2   0   0  2.291376e+03 -5.528754e+02 -1.739961e+03  2.929768e+03 0.0 0.0 9.0
#pdf 2 21 1.779124e-01 7.397708e-01 5000.0 4.123051e-01 5.000531e-03
</event>
<event>
4 7 1.0 5000.0 7.905138e-03 7.739137e-02
 2 -1 0 0 101   0  0.000000e+00  0.000000e+00  3.290915e+03  3.290915e+03 0.0 0.0 9.0
21 -1 0 0 103 101  0.000000e+00  0.000000e+00 -1.859034e+03  1.859034e+03 0.0 0.0 9.0
22  1 1 2   0   0  1.221838e+03  1.870886e+03 -3.881697e+02  2.267990e+03 0.0 0.0 9.0
 2  1 1 2 103   0 -1.221838e+03 -1.870886e+03  1.820051e+03  2.881959e+03 0.0022 0.0 9.0
#pdf 2 21 5.062947e-01 2.860052e-01 5000.0 6.701755e-02 2.666377e-01
</event>
<event>
4 7 1.0 5000.0 7.905138e-03 7.739137e-02
21 -1 0 0 103 101  0.000000e+00  0.000000e+00  2.143174e+03  2.143174e+03 0.0 0.0 9.0
 2 -1 0 0 101   0  0.000000e+00  0.000000e+00 -2.575267e+03  2.575267e+03 0.0 0.0 9.0
 2  1 1 2 103   0  1.094895e+03 -1.921123e+03 -1.012955e+03  2.432198e+03 0.0022 0.0 9.0
22  1 1 2   0   0 -1.094895e+03  1.921123e+03  5.808619e+02  2.286244e+03 0.0 0.0 9.0
#pdf 21 2 3.297191e-01 3.961949e-01 5000.0 2.503219e-02 1.099312e-02
</event>
<event>
4 7 1.0 5000.0 7.905138e-03 7.739137e-02
21 -1 0 0 103 101  0.000000e+00  0.000000e+00  1.493574e+03  1.493574e+03 0.0 0.0 9.0
 2 -1 0 0 101   0  0.000000e+00  0.000000e+00 -4.256657e+03  4.256657e+03 0.0 0.0 9.0
 2  1 1 2 103   0 -2.336628e+03  7.586925e+02 -2.028780e+03  3.186125e+03 0.0022 0.0 9.0
22  1 1 2   0   0  2.336628e+03 -7.586925e+02 -7.343028e+02  2.564107e+03 0.0 0.0 9.0
#pdf 21 2 2.297807e-01 6.548703e-01 5000.0 8.587630e-02 2.542880e-04
</event>
<event>
4 7 1.0 5000.0 7.905138e-03 7.739137e-02
 2 -1 0 0 101   0  0.000000e+00  0.000000e+00  2.875031e+03  2.875031e+03 0.0 0.0 9.0
21 -1 0 0 103 101  0.000000e+00  0.000000e+00 -1.964764e+03  1.964764e+03 0.0 0.0 9.0
22  1 1 2   0   0 -1.920839e+03 -9.261027e+02 -6.134438e+02  2.218919e+03 0.0 0.0 9.0
 2  1 1 2 103   0  1.920839e+03  9.261027e+02  1.523711e+03  2.620875e+03 0.0022 0.0 9.0
#pdf 2 21 4.423124e-01 3.022713e-01 5000.0 1.078979e-01 2.464169e-01
</event>
<event>
4 7 1.0 5000.0 7.905138e-03 7.739137e-02
 2 -1 0 0 101   0  0.000000e+00  0.000000e+00  1.773641e+03  1.773641e+03 0.0 0.0 9.0
21 -1 0 0 103 101  0.000000e+00  0.000000e+00 -3.668869e+03  3.668869e+03 0.0 0.0 9.0
22  1 1 2   0   0  1.403423e+03 -1.193289e+03 -2.830006e+03  3.376754e+03 0.0 0.0 9.0
 2  1 1 2 103   0 -1.403423e+03  1.193289e+03  9.347780e+02  2.065755e+03 0.0022 0.0 9.0
#pdf 2 21 2.728678e-01 5.644413e-01 5000.0 2.834587e-01 4.068085e-02
</event>
<event>
4 7 1.0 5000.0 7.905138e-03 7.739137e-02
21 -1 0 0 103 101  0.000000e+00  0.000000e+00  2.525876e+03  2.525876e+03 0.0 0.0 9.0
 2 -1 0 0 101   0  0.000000e+00  0.000000e+00 -3.646137e+03  3.646137e+03 0.0 0.0 9.0
 2  1 1 2 103   0  6.646728e+02  2.960974e+03 -5.365686e+02  3.081730e+03 0.0022 0.0 9.0
22  1 1 2   0   0 -6.646728e+02 -2.960974e+03 -5.836927e+02  3.090283e+03 0.0 0.0 9.0
#pdf 21 2 3.885963e-01 5.609442e-01 5000.0 1.209564e-02 1.176573e-03
</event>
<event>
4 7 1.0 5000.0 7.905138e-03 7.739137e-02
21 -1 0 0 103 101  0.000000e+00  0.000000e+00  2.045933e+03  2.045933e+03 0.0 0.0 9.0
 2 -1 0 0 101   0  0.000000e+00  0.000000e+00 -2.685465e+03  2.685465e+03 0.0 0.0 9.0
 2  1 1 2 103   0 -2.214006e+03  5.909362e+02 -8.175418e+02  2.432982e+03 0.0022 0.0 9.0
22  1 1 2   0   0  2.214006e+03 -5.909362e+02  1.780094e+02  2.298416e+03 0.0 0.0 9.0
#pdf 21 2 3.147589e-01 4.131485e-01 5000.0 3.007098e-02 8.871140e-03
</event>
<event>
4 7 1.0 5000.0 7.905138e-03 7.739137e-02
 2 -1 0 0 101   0  0.000000e+00  0.000000e+00  1.789236e+03  1.789236e+03 0.0 0.0 9.0
21 -1 0 0 103 101  0.000000e+00  0.000000e+00 -4.311241e+03  4.311241e+03 0.0 0.0 9.0
 2  1 1 2 103   0 -8.306382e+02 -1.799359e+02  1.642911e+03  1.849728e+03 0.0022 0.0 9.0
22  1 1 2   0   0  8.306382e+02  1.799359e+02 -4.164916e+03  4.250748e+03 0.0 0.0 9.0
#pdf 2 21 2.752670e-01 6.632678e-01 5000.0 2.803538e-01 1.434344e-02
</event>
<event>
4 7 1.0 5000.0 7.905138e-03 7.739137e-02
 2 -1 0 0 101   0  0.000000e+00  0.000000e+00  3.107013e+03  3.107013e+03 0.0 0.0 9.0
21 -1 0 0 103 101  0.000000e+00  0.000000e+00 -2.076619e+03  2.076619e+03 0.0 0.0 9.0
22  1 1 2   0   0 -7.639242e+02  5.397014e+02 -1.894505e+03  2.112820e+03 0.0 0.0 9.0
 2  1 1 2 103   0  7.639242e+02 -5.397014e+02  2.924898e+03  3.070812e+03 0.0022 0.0 9.0
#pdf 2 21 4.780019e-01 3.194799e-01 5000.0 8.344126e-02 2.258556e-01
</event>
<event>
4 7 1.0 5000.0 7.905138e-03 7.739137e-02
21 -1 0 0 103 101  0.000000e+00  0.000000e+00  3.618662e+03  3.618662e+03 0.0 0.0 9.0
 2 -1 0 0 101   0  0.000000e+00  0.000000e+00 -1.714802e+03  1.714802e+03 0.0 0.0 9.0
22  1 1 2   0   0 -6.281315e+02 -1.173393e+03  3.206121e+03  3.471399e+03 0.0 0.0 9.0
 2  1 1 2 103   0  6.281315e+02  1.173393e+03 -1.302261e+03  1.862064e+03 0.0022 0.0 9.0
#pdf 21 2 5.567172e-01 2.638156e-01 5000.0 1.252611e-03 5.617272e-02
</event>
<event>
4 7 1.0 5000.0 7.905138e-03 7.739137e-02
21 -1 0 0 103 101  0.000000e+00  0.000000e+00  2.307880e+03  2.307880e+03 0.0 0.0 9.0
 2 -1 0 0 101   0  0.000000e+00  0.000000e+00 -2.924654e+03  2.924654e+03 0.0 0.0 9.0
 2  1 1 2 103   0  2.357061e+03 -2.177248e+02 -1.386703e+03  2.743371e+03 0.0022 0.0 9.0
22  1 1 2   0   0 -2.357061e+03  2.177248e+02  7.699284e+02  2.489163e+03 0.0 0.0 9.0
#pdf 21 2 3.550585e-01 4.499468e-01 5000.0 1.833100e-02 5.521049e-03
</event>
<event>
4 7 1.0 5000.0 7.905138e-03 7.739137e-02
 2 -1 0 0 101   0  0.000000e+00  0.000000e+00  1.989658e+03  1.989658e+03 0.0 0.0 9.0
21 -1 0 0 103 101  0.000000e+00  0.000000e+00 -3.260766e+03  3.260766e+03 0.0 0.0 9.0
 2  1 1 2 103   0 -4.397449e+02  5.103999e+02 -3.167272e+03  3.238131e+03 0.0022 0.0 9.0
22  1 1 2   0   0  4.397449e+02 -5.103999e+02  1.896164e+03  2.012292e+03 0.0 0.0 9.0
#pdf 2 21 3.061012e-01 5.016563e-01 5000.0 2.417569e-01 6.953842e-02
</event>
<event>
4 7 1.0 5000.0 7.905138e-03 7.739137e-02
21 -1 0 0 103 101  0.000000e+00  0.000000e+00  1.282439e+03  1.282439e+03 0.0 0.0 9.0
 2 -1 0 0 101   0  0.000000e+00  0.000000e+00 -4.564572e+03  4.564572e+03 0.0 0.0 9.0
22  1 1 2   0   0 -2.116976e+03 -7.444366e+02 -2.733928e+03  3.536967e+03 0.0 0.0 9.0
 2  1 1 2 103   0  2.116976e+03  7.444366e+02 -5.482045e+02  2.310044e+03 0.0022 0.0 9.0
#pdf 21 2 1.972983e-01 7.022418e-01 5000.0 1.303092e-01 1.034070e-04
</event>
<event>
4 7 1.0 5000.0 7.905138e-03 7.739137e-02
21 -1 0 0 103 101  0.000000e+00  0.000000e+00  1.759457e+03  1.759457e+03 0.0 0.0 9.0
 2 -1 0 0 101   0  0.000000e+00  0.000000e+00 -3.471793e+03  3.471793e+03 0.0 0.0 9.0
22  1 1 2   0   0 -8.870926e+02  2.263497e+03 -3.851177e+02  2.461436e+03 0.0 0.0 9.0
 2  1 1 2 103   0  8.870926e+02 -2.263497e+03 -1.327218e+03  2.769813e+03 0.0022 0.0 9.0
#pdf 21 2 2.706856e-01 5.341219e-01 5000.0 5.160845e-02 1.743250e-03
</event>
<event>
4 7 1.0 5000.0 7.905138e-03 7.739137e-02
21 -1 0 0 103 101  0.000000e+00  0.000000e+00  1.981665e+03  1.981665e+03 0.0 0.0 9.0
 2 -1 0 0 101   0  0.000000e+00  0.000000e+00 -3.204893e+03  3.204893e+03 0.0 0.0 9.0
 2  1 1 2 103   0 -1.629190e+03 -1.612550e+03 -1.689123e+03  2.847405e+03 0.0022 0.0 9.0
22  1 1 2   0   0  1.629190e+03  1.612550e+03  4.658944e+02  2.339153e+03 0.0 0.0 9.0
#pdf 21 2 3.048715e-01 4.930605e-01 5000.0 3.396500e-02 3.100502e-03
</event>
<event>
4 7 1.0 5000.0 7.905138e-03 7.739137e-02
 2 -1 0 0 101   0  0.000000e+00  0.000000e+00  3.116122e+03  3.116122e+03 0.0 0.0 9.0
21 -1 0 0 103 101  0.000000e+00  0.000000e+00 -1.921336e+03  1.921336e+03 0.0 0.0 9.0
22  1 1 2   0   0  1.429993e+03  1.439459e+03  2.005112e+03  2.852612e+03 0.0 0.0 9.0
 2  1 1 2 103   0 -1.429993e+03 -1.439459e+03 -8.103264e+02  2.184846e+03 0.0022 0.0 9.0
#pdf 2 21 4.794034e-01 2.955902e-01 5000.0 8.256733e-02 2.546227e-01
</event>
<event>
4 7 1.0 5000.0 7.905138e-03 7.739137e-02
21 -1 0 0 103 101  0.000000e+00  0.000000e+00  2.026450e+03  2.026450e+03 0.0 0.0 9.0
 2 -1 0 0 101   0  0.000000e+00  0.000000e+00 -3.168538e+03  3.168538e+03 0.0 0.0 9.0
 2  1 1 2 103   0 -2.409386e+03 -2.696654e+02 -1.326426e+03  2.763560e+03 0.0022 0.0 9.0
22  1 1 2   0   0  2.409386e+03  2.696654e+02  1.843383e+02  2.431428e+03 0.0 0.0 9.0
#pdf 21 2 3.117615e-01 4.874673e-01 5000.0 3.120829e-02 3.345557e-03
</event>
<event>
4 7 1.0 5000.0 7.905138e-03 7.739137e-02
 2 -1 0 0 101   0  0.000000e+00  0.000000e+00  1.587112e+03  1.587112e+03 0.0 0.0 9.0
21 -1 0 0 103 101  0.000000e+00  0.000000e+00 -3.492160e+03  3.492160e+03 0.0 0.0 9.0
22  1 1 2   0   0  3.418480e+02 -1.596159e+03 -2.782544e+03  3.226009e+03 0.0 0.0 9.0
 2  1 1 2 103   0 -3.418480e+02  1.596159e+03  8.774956e+02  1.853263e+03 0.0022 0.0 9.0
#pdf 2 21 2.441711e-01 5.372554e-01 5000.0 3.214559e-01 5.181820e-02
</event>
<event>
4 7 1.0 5000.0 7.905138e-03 7.739137e-02
 2 -1 0 0 101   0  0.000000e+00  0.000000e+00  1.227417e+03  1.227417e+03 0.0 0.0 9.0
21 -1 0 0 103 101  0.000000e+00  0.000000e+00 -4.556312e+03  4.556312e+03 0.0 0.0 9.0
 2  1 1 2 103   0  6.830035e+02  1.052284e+03  7.869733e+02  1.480920e+03 0.0022 0.0 9.0
22  1 1 2   0   0 -6.830035e+02 -1.052284e+03 -4.115869e+03  4.302810e+03 0.0 0.0 9.0
#pdf 2 21 1.888334e-01 7.009711e-01 5000.0 3.973957e-01 8.832772e-03
</event>
<event>
4 7 1.0 5000.0 7.905138e-03 7.739137e-02
21 -1 0 0 103 101  0.000000e+00  0.000000e+00  2.743052e+03  2.743052e+03 0.0 0.0 9.0
 2 -1 0 0 101   0  0.000000e+00  0.000000e+00 -2.056512e+03  2.056512e+03 0.0 0.0 9.0
 2  1 1 2 103   0  2.054723e+03  1.561342e+02  1.536581e+03  2.570476e+03 0.0022 0.0 9.0
22  1 1 2   0   0 -2.054723e+03 -1.561342e+02 -8.500417e+02  2.229088e+03 0.0 0.0 9.0
#pdf 21 2 4.220080e-01 3.163865e-01 5000.0 7.924457e-03 2.947223e-02
</event>
<event>
4 7 1.0 5000.0 7.905138e-03 7.739137e-02
 2 -1 0 0 101   0  0.000000e+00  0.000000e+00  2.453677e+03  2.453677e+03 0.0 0.0 9.0
21 -1 0 0 103 101  0.000000e+00  0.000000e+00 -2.516921e+03  2.516921e+03 0.0 0.0 9.0
22  1 1 2   0   0  9.396033e+02 -2.255060e+03 -4.872480e+02  2.491096e+03 0.0 0.0 9.0
 2  1 1 2 103   0 -9.396033e+02  2.255060e+03  4.240042e+02  2.479502e+03 0.0022 0.0 9.0
#pdf 2 21 3.774888e-01 3.872186e-01 5000.0 1.635930e-01 1.542930e-01
</event>
<event>
4 7 1.0 5000.0 7.905138e-03 7.739137e-02
 2 -1 0 0 101   0  0.000000e+00  0.000000e+00  3.036650e+03  3.036650e+03 0.0 0.0 9.0
21 -1 0 0 103 101  0.000000e+00  0.000000e+00 -2.008286e+03  2.008286e+03 0.0 0.0 9.0
 2  1 1 2 103   0  8.554426e+02  1.681625e+03 -1.113356e+03  2.190709e+03 0.0022 0.0 9.0
22  1 1 2   0   0 -8.554426e+02 -1.681625e+03  2.141719e+03  2.854226e+03 0.0 0.0 9.0
#pdf 2 21 4.671768e-01 3.089671e-01 5000.0 9.040885e-02 2.383025e-01
</event>
<event>
4 7 1.0 5000.0 7.905138e-03 7.739137e-02
21 -1 0 0 103 101  0.000000e+00  0.000000e+00  3.032215e+03  3.032215e+03 0.0 0.0 9.0
 2 -1 0 0 101   0  0.000000e+00  0.000000e+00 -2.041688e+03  2.041688e+03 0.0 0.0 9.0
22  1 1 2   0   0  8.080046e+02 -1.946552e+02  2.886496e+03  3.003768e+03 0.0 0.0 9.0
 2  1 1 2 103   0 -8.080046e+02  1.946552e+02 -1.895969e+03  2.070135e+03 0.0022 0.0 9.0
#pdf 21 2 4.664947e-01 3.141059e-01 5000.0 4.436784e-03 3.031505e-02
</event>
<event>
4 7 1.0 5000.0 7.905138e-03 7.739137e-02
21 -1 0 0 103 101  0.000000e+00  0.000000e+00  2.475934e+03  2.475934e+03 0.0 0.0 9.0
 2 -1 0 0 101   0  0.000000e+00  0.000000e+00 -2.535037e+03  2.535037e+03 0.0 0.0 9.0
 2  1 1 2 103   0 -1.885480e+03 -3.681599e+02  1.578668e+03  2.486517e+03 0.0022 0.0 9.0
22  1 1 2   0   0  1.885480e+03  3.681599e+02 -1.637770e+03  2.524454e+03 0.0 0.0 9.0
#pdf 21 2 3.809130e-01 3.900057e-01 5000.0 1.332311e-02 1.188265e-02
</event>
<event>
4 7 1.0 5000.0 7.905138e-03 7.739137e-02
21 -1 0 0 103 101  0.000000e+00  0.000000e+00  1.964330e+03  1.964330e+03 0.0 0.0 9.0
 2 -1 0 0 101   0  0.000000e+00  0.000000e+00 -2.986207e+03  2.986207e+03 0.0 0.0 9.0
 2  1 1 2 103   0  1.357352e+03 -1.902883e+03 -1.159355e+03  2.609113e+03 0.0022 0.0 9.0
22  1 1 2   0   0 -1.357352e+03  1.902883e+03  1.374779e+02  2.341424e+03 0.0 0.0 9.0
#pdf 21 2 3.022046e-01 4.594165e-01 5000.0 3.507295e-02 4.873258e-03
</event>
<event>
4 7 1.0 5000.0 7.905138e-03 7.739137e-02
21 -1 0 0 103 101  0.000000e+00  0.000000e+00  1.917751e+03  1.917751e+03 0.0 0.0 9.0
 2 -1 0 0 101   0  0.000000e+00  0.000000e+00 -3.123746e+03  3.123746e+03 0.0 0.0 9.0
 2  1 1 2 103   0 -1.004909e+03  1.081022e+03 -2.613844e+03  3.001771e+03 0.0022 0.0 9.0
22  1 1 2   0   0  1.004909e+03 -1.081022e+03  1.407849e+03  2.039727e+03 0.0 0.0 9.0
#pdf 21 2 2.950387e-01 4.805764e-01 5000.0 3.831481e-02 3.673540e-03
</event>
<event>
4 7 1.0 5000.0 7.905138e-03 7.739137e-02
 2 -1 0 0 101   0  0.000000e+00  0.000000e+00  1.912770e+03  1.912770e+03 0.0 0.0 9.0
21 -1 0 0 103 101  0.000000e+00  0.000000e+00 -3.023066e+03  3.023066e+03 0.0 0.0 9.0
 2  1 1 2 103   0  1.665536e+03  1.649129e+03 -3.616325e+00  2.343853e+03 0.0022 0.0 9.0
22  1 1 2   0   0 -1.665536e+03 -1.649129e+03 -1.106679e+03  2.591982e+03 0.0 0.0 9.0
#pdf 2 21 2.942723e-01 4.650870e-01 5000.0 2.562575e-01 9.179602e-02
</event>
<event>
4 7 1.0 5000.0 7.905138e-03 7.739137e-02
21 -1 0 0 103 101  0.000000e+00  0.000000e+00  2.071123e+03  2.071123e+03 0.0 0.0 9.0
 2 -1 0 0 101   0  0.000000e+00  0.000000e+00 -2.909945e+03  2.909945e+03 0.0 0.0 9.0
 2  1 1 2 103   0  2.981349e+02 -1.606912e+03 -2.277837e+03  2.803496e+03 0.0022 0.0 9.0
22  1 1 2   0   0 -2.981349e+02  1.606912e+03  1.439016e+03  2.177571e+03 0.0 0.0 9.0
#pdf 21 2 3.186344e-01 4.476838e-01 5000.0 2.866884e-02 5.683370e-03
</event>
<event>
4 7 1.0 5000.0 7.905138e-03 7.739137e-02
 2 -1 0 0 101   0  0.000000e+00  0.000000e+00  1.534418e+03  1.534418e+03 0.0 0.0 9.0
21 -1 0 0 103 101  0.000000e+00  0.000000e+00 -3.971962e+03  3.971962e+03 0.0 0.0 9.0
22  1 1 2   0   0  1.784635e+03  4.599755e+02 -3.050643e+03  3.564116e+03 0.0 0.0 9.0
 2  1 1 2 103   0 -1.784635e+03 -4.599755e+02  6.130990e+02  1.942264e+03 0.0022 0.0 9.0
#pdf 2 21 2.360643e-01 6.110710e-01 5000.0 3.324224e-01 2.576813e-02
</event>
<event>
4 7 1.0 5000.0 7.905138e-03 7.739137e-02
 2 -1 0 0 101   0  0.000000e+00  0.000000e+00  2.904167e+03  2.904167e+03 0.0 0.0 9.0
21 -1 0 0 103 101  0.000000e+00  0.000000e+00 -2.132005e+03  2.132005e+03 0.0 0.0 9.0
 2  1 1 2 103   0 -1.205454e+03  4.832747e+02  2.533981e+03  2.847409e+03 0.0022 0.0 9.0
22  1 1 2   0   0  1.205454e+03 -4.832747e+02 -1.761820e+03  2.188763e+03 0.0 0.0 9.0
#pdf 2 21 4.467949e-01 3.280008e-01 5000.0 1.045733e-01 2.160029e-01
</event>
<event>
4 7 1.0 5000.0 7.905138e-03 7.739137e-02
 2 -1 0 0 101   0  0.000000e+00  0.000000e+00  1.629808e+03  1.629808e+03 0.0 0.0 9.0
21 -1 0 0 103 101  0.000000e+00  0.000000e+00 -3.954695e+03  3.954695e+03 0.0 0.0 9.0
 2  1 1 2 103   0 -1.205325e+03  6.645609e+02  1.183840e+03  1.815469e+03 0.0022 0.0 9.0
22  1 1 2   0   0  1.205325e+03 -6.645609e+02 -3.508728e+03  3.769034e+03 0.0 0.0 9.0
#pdf 2 21 2.507397e-01 6.084146e-01 5000.0 3.126063e-01 2.648803e-02
</event>
<event>
4 7 1.0 5000.0 7.905138e-03 7.739137e-02
 2 -1 0 0 101   0  0.000000e+00  0.000000e+00  2.085245e+03  2.085245e+03 0.0 0.0 9.0
21 -1 0 0 103 101  0.000000e+00  0.000000e+00 -2.858780e+03  2.858780e+03 0.0 0.0 9.0
 2  1 1 2 103   0  1.781274e+03  1.669343e+03 -3.460911e+02  2.465649e+03 0.0022 0.0 9.0
22  1 1 2   0   0 -1.781274e+03 -1.669343e+03 -4.274441e+02  2.478377e+03 0.0 0.0 9.0
#pdf 2 21 3.208069e-01 4.398124e-01 5000.0 2.243073e-01 1.097773e-01
</event>
<event>
4 7 1.0 5000.0 7.905138e-03 7.739137e-02
21 -1 0 0 103 101  0.000000e+00  0.000000e+00  2.139460e+03  2.139460e+03 0.0 0.0 9.0
 2 -1 0 0 101   0  0.000000e+00  0.000000e+00 -2.717933e+03  2.717933e+03 0.0 0.0 9.0
 2  1 1 2 103   0  1.060521e+03 -1.457953e+02 -2.465499e+03  2.687871e+03 0.0022 0.0 9.0
22  1 1 2   0   0 -1.060521e+03  1.457953e+02  1.887026e+03  2.169523e+03 0.0 0.0 9.0
#pdf 21 2 3.291477e-01 4.181436e-01 5000.0 2.520790e-02 8.324944e-03
</event>
<event>
4 7 1.0 5000.0 7.905138e-03 7.739137e-02
 2 -1 0 0 101   0  0.000000e+00  0.000000e+00  4.373657e+03  4.373657e+03 0.0 0.0 9.0
21 -1 0 0 103 101  0.000000e+00  0.000000e+00 -1.408945e+03  1.408945e+03 0.0 0.0 9.0
22  1 1 2   0   0  1.490638e+03 -7.366612e+02  3.629238e+03  3.991997e+03 0.0 0.0 9.0
 2  1 1 2 103   0 -1.490638e+03  7.366612e+02 -6.645262e+02  1.790605e+03 0.0022 0.0 9.0
#pdf 2 21 6.728703e-01 2.167608e-01 5000.0 1.274937e-02 3.588590e-01
</event>
<event>
4 7 1.0 5000.0 7.905138e-03 7.739137e-02
 2 -1 0 0 101   0  0.000000e+00  0.000000e+00  2.171551e+03  2.171551e+03 0.0 0.0 9.0
21 -1 0 0 103 101  0.000000e+00  0.000000e+00 -3.003556e+03  3.003556e+03 0.0 0.0 9.0
 2  1 1 2 103   0 -1.316073e+03  2.188030e+03 -4.700860e+02  2.596248e+03 0.0022 0.0 9.0
22  1 1 2   0   0  1.316073e+03 -2.188030e+03 -3.619196e+02  2.578858e+03 0.0 0.0 9.0
#pdf 2 21 3.340847e-01 4.620856e-01 5000.0 2.091112e-01 9.381170e-02
</event>
<event>
4 7 1.0 5000.0 7.905138e-03 7.739137e-02
 2 -1 0 0 101   0  0.000000e+00  0.000000e+00  1.935016e+03  1.935016e+03 0.0 0.0 9.0
21 -1 0 0 103 101  0.000000e+00  0.000000e+00 -3.191318e+03  3.191318e+03 0.0 0.0 9.0
 2  1 1 2 103   0 -3.104774e+02  9.641792e+02  1.712410e+03  1.989570e+03 0.0022 0.0 9.0
22  1 1 2   0   0  3.104774e+02 -9.641792e+02 -2.968713e+03  3.136765e+03 0.0 0.0 9.0
#pdf 2 21 2.976948e-01 4.909721e-01 5000.0 2.520259e-01 7.559866e-02
</event>
<event>
4 7 1.0 5000.0 7.905138e-03 7.739137e-02
21 -1 0 0 103 101  0.000000e+00  0.000000e+00  1.723602e+03  1.723602e+03 0.0 0.0 9.0
 2 -1 0 0 101   0  0.000000e+00  0.000000e+00 -3.234634e+03  3.234634e+03 0.0 0.0 9.0
 2  1 1 2 103   0 -1.558976e+03 -1.102148e+03 -2.214177e+03  2.923648e+03 0.0022 0.0 9.0
22  1 1 2   0   0  1.558976e+03  1.102148e+03  7.031461e+02  2.034588e+03 0.0 0.0 9.0
#pdf 21 2 2.651696e-01 4.976360e-01 5000.0 5.523932e-02 2.912020e-03
</event>
<event>
4 7 1.0 5000.0 7.905138e-03 7.739137e-02
21 -1 0 0 103 101  0.000000e+00  0.000000e+00  3.273395e+03  3.273395e+03 0.0 0.0 9.0
 2 -1 0 0 101   0  0.000000e+00  0.000000e+00 -1.939723e+03  1.939723e+03 0.0 0.0 9.0
22  1 1 2   0   0 -1.974323e+03  9.966959e+02  1.915932e+03  2.926115e+03 0.0 0.0 9.0
 2  1 1 2 103   0  1.974323e+03 -9.966959e+02 -5.822596e+02  2.287003e+03 0.0022 0.0 9.0
#pdf 21 2 5.035993e-01 2.984189e-01 5000.0 2.681262e-03 3.673863e-02
</event>
<event>
4 7 1.0 5000.0 7.905138e-03 7.739137e-02
21 -1 0 0 103 101  0.000000e+00  0.000000e+00  4.093501e+03  4.093501e+03 0.0 0.0 9.0
 2 -1 0 0 101   0  0.000000e+00  0.000000e+00 -1.529107e+03  1.529107e+03 0.0 0.0 9.0
 2  1 1 2 103   0  7.002859e+02  1.983882e+02  3.971906e+03  4.038043e+03 0.0022 0.0 9.0
22  1 1 2   0   0 -7.002859e+02 -1.983882e+02 -1.407512e+03  1.584565e+03 0.0 0.0 9.0
#pdf 21 2 6.297695e-01 2.352473e-01 5000.0 3.931461e-04 8.022459e-02
</event>
<event>
4 7 1.0 5000.0 7.905138e-03 7.739137e-02
 2 -1 0 0 101   0  0.000000e+00  0.000000e+00  1.836140e+03  1.836140e+03 0.0 0.0 9.0
21 -1 0 0 103 101  0.000000e+00  0.000000e+00 -3.584218e+03  3.584218e+03 0.0 0.0 9.0
22  1 1 2   0   0 -1.410241e+03  1.062095e+03  1.092287e+03  2.076034e+03 0.0 0.0 9.0
 2  1 1 2 103   0  1.410241e+03 -1.062095e+03 -2.840366e+03  3.344324e+03 0.0022 0.0 9.0
#pdf 2 21 2.824830e-01 5.514182e-01 5000.0 2.711085e-01 4.576120e-02
</event>
<event>
4 7 1.0 5000.0 7.905138e-03 7.739137e-02
 2 -1 0 0 101   0  0.000000e+00  0.000000e+00  2.156817e+03  2.156817e+03 0.0 0.0 9.0
21 -1 0 0 103 101  0.000000e+00  0.000000e+00 -2.865426e+03  2.865426e+03 0.0 0.0 9.0
 2  1 1 2 103   0  5.246783e+02  1.648378e+03 -2.157776e+03  2.765581e+03 0.0022 0.0 9.0
22  1 1 2   0   0 -5.246783e+02 -1.648378e+03  1.449167e+03  2.256662e+03 0.0 0.0 9.0
#pdf 2 21 3.318179e-01 4.408348e-01 5000.0 2.116638e-01 1.090068e-01
</event>
<event>
4 7 1.0 5000.0 7.905138e-03 7.739137e-02
 2 -1 0 0 101   0  0.000000e+00  0.000000e+00  1.801367e+03  1.801367e+03 0.0 0.0 9.0
21 -1 0 0 103 101  0.000000e+00  0.000000e+00 -3.651179e+03  3.651179e+03 0.0 0.0 9.0
22  1 1 2   0   0 -1.167656e+03 -2.594189e+02 -3.336494e+03  3.544420e+03 0.0 0.0 9.0
 2  1 1 2 103   0  1.167656e+03  2.594189e+02  1.486682e+03  1.908125e+03 0.0022 0.0 9.0
#pdf 2 21 2.771333e-01 5.617198e-01 5000.0 2.779486e-01 4.171426e-02
</event>
<event>
4 7 1.0 5000.0 7.905138e-03 7.739137e-02
 2 -1 0 0 101   0  0.000000e+00  0.000000e+00  1.817240e+03  1.817240e+03 0.0 0.0 9.0
21 -1 0 0 103 101  0.000000e+00  0.000000e+00 -3.000516e+03  3.000516e+03 0.0 0.0 9.0
 2  1 1 2 103   0 -1.879730e+03 -4.647587e+02 -1.937971e+03  2.739547e+03 0.0022 0.0 9.0
22  1 1 2   0   0  1.879730e+03  4.647587e+02  7.546945e+02  2.078209e+03 0.0 0.0 9.0
#pdf 2 21 2.795753e-01 4.616179e-01 5000.0 2.748161e-01 9.412902e-02
</event>
<event>
4 7 1.0 5000.0 7.905138e-03 7.739137e-02
21 -1 0 0 103 101  0.000000e+00  0.000000e+00  2.393584e+03  2.393584e+03 0.0 0.0 9.0
 2 -1 0 0 101   0  0.000000e+00  0.000000e+00 -2.705091e+03  2.705091e+03 0.0 0.0 9.0
22  1 1 2   0   0  8.727247e+02 -2.383627e+03 -3.336740e+02  2.560208e+03 0.0 0.0 9.0
 2  1 1 2 103   0 -8.727247e+02  2.383627e+03  2.216684e+01  2.538467e+03 0.0022 0.0 9.0
#pdf 21 2 3.682437e-01 4.161679e-01 5000.0 1.557425e-02 8.536928e-03
</event>
<event>
4 7 1.0 5000.0 7.905138e-03 7.739137e-02
 2 -1 0 0 101   0  0.000000e+00  0.000000e+00  5.386320e+03  5.386320e+03 0.0 0.0 9.0
21 -1 0 0 103 101  0.000000e+00  0.000000e+00 -1.318139e+03  1.318139e+03 0.0 0.0 9.0
 2  1 1 2 103   0  1.023262e+03 -2.171588e+03  3.488820e+03  4.234941e+03 0.0022 0.0 9.0
22  1 1 2   0   0 -1.023262e+03  2.171588e+03  5.793608e+02  2.469518e+03 0.0 0.0 9.0
#pdf 2 21 8.286646e-01 2.027906e-01 5000.0 9.036623e-04 3.781862e-01
</event>
<event>
4 7 1.0 5000.0 7.905138e-03 7.739137e-02
21 -1 0 0 103 101  0.000000e+00  0.000000e+00  2.523533e+03  2.523533e+03 0.0 0.0 9.0
 2 -1 0 0 101   0  0.000000e+00  0.000000e+00 -2.441165e+03  2.441165e+03 0.0 0.0 9.0
 2  1 1 2 103   0 -3.142653e+02  1.143422e+03 -2.139525e+03  2.446169e+03 0.0022 0.0 9.0
22  1 1 2   0   0  3.142653e+02 -1.143422e+03  2.221893e+03  2.518529e+03 0.0 0.0 9.0
#pdf 21 2 3.882358e-01 3.755638e-01 5000.0 1.215076e-02 1.423567e-02
</event>
<event>
4 7 1.0 5000.0 7.905138e-03 7.739137e-02
21 -1 0 0 103 101  0.000000e+00  0.000000e+00  1.415398e+03  1.415398e+03 0.0 0.0 9.0
 2 -1 0 0 101   0  0.000000e+00  0.000000e+00 -4.433779e+03  4.433779e+03 0.0 0.0 9.0
22  1 1 2   0   0 -1.140637e+03  1.567733e+03 -3.361254e+03  3.880319e+03 0.0 0.0 9.0
 2  1 1 2 103   0  1.140637e+03 -1.567733e+03  3.428742e+02  1.968858e+03 0.0022 0.0 9.0
#pdf 21 2 2.177536e-01 6.821198e-01 5000.0 1.001164e-01 1.534862e-04
</event>
<event>
4 7 1.0 5000.0 7.905138e-03 7.739137e-02
 2 -1 0 0 101   0  0.000000e+00  0.000000e+00  3.355659e+03  3.355659e+03 0.0 0.0 9.0
21 -1 0 0 103 101  0.000000e+00  0.000000e+00 -1.765177e+03  1.765177e+03 0.0 0.0 9.0
22  1 1 2   0   0  2.073937e+03  1.780102e+02 -5.314977e+02  2.148346e+03 0.0 0.0 9.0
 2  1 1 2 103   0 -2.073937e+03 -1.780102e+02  2.121980e+03  2.972490e+03 0.0022 0.0 9.0
#pdf 2 21 5.162553e-01 2.715657e-01 5000.0 6.182333e-02 2.851495e-01
</event>
<event>
4 7 1.0 5000.0 7.905138e-03 7.739137e-02
21 -1 0 0 103 101  0.000000e+00  0.000000e+00  4.244622e+03  4.244622e+03 0.0 0.0 9.0
 2 -1 0 0 101   0  0.000000e+00  0.000000e+00 -1.153933e+03  1.153933e+03 0.0 0.0 9.0
 2  1 1 2 103   0  1.774505e+01  2.076313e+03  6.111936e+02  2.164474e+03 0.0022 0.0 9.0
22  1 1 2   0   0 -1.774505e+01 -2.076313e+03  2.479495e+03  3.234082e+03 0.0 0.0 9.0
#pdf 21 2 6.530188e-01 1.775282e-01 5000.0 2.627248e-04 1.696199e-01
</event>
<event>
4 7 1.0 5000.0 7.905138e-03 7.739137e-02
 2 -1 0 0 101   0  0.000000e+00  0.000000e+00  1.576105e+03  1.576105e+03 0.0 0.0 9.0
21 -1 0 0 103 101  0.000000e+00  0.000000e+00 -3.935080e+03  3.935080e+03 0.0 0.0 9.0
 2  1 1 2 103   0  1.127104e+02 -2.333998e+03 -2.132510e+03  3.163518e+03 0.0022 0.0 9.0
22  1 1 2   0   0 -1.127104e+02  2.333998e+03 -2.264656e+02  2.347666e+03 0.0 0.0 9.0
#pdf 2 21 2.424776e-01 6.053969e-01 5000.0 3.237244e-01 2.732316e-02
</event>
<event>
4 7 1.0 5000.0 7.905138e-03 7.739137e-02
 2 -1 0 0 101   0  0.000000e+00  0.000000e+00  4.164222e+03  4.164222e+03 0.0 0.0 9.0
21 -1 0 0 103 101  0.000000e+00  0.000000e+00 -1.508414e+03  1.508414e+03 0.0 0.0 9.0
 2  1 1 2 103   0 -2.081832e+03  1.205431e+03  5.322649e+02  2.463817e+03 0.0022 0.0 9.0
22  1 1 2   0   0  2.081832e+03 -1.205431e+03  2.123543e+03  3.208820e+03 0.0 0.0 9.0
#pdf 2 21 6.406496e-01 2.320637e-01 5000.0 1.869215e-02 3.378997e-01
</event>
<event>
4 7 1.0 5000.0 7.905138e-03 7.739137e-02
 2 -1 0 0 101   0  0.000000e+00  0.000000e+00  1.366214e+03  1.366214e+03 0.0 0.0 9.0
21 -1 0 0 103 101  0.000000e+00  0.000000e+00 -4.975709e+03  4.975709e+03 0.0 0.0 9.0
 2  1 1 2 103   0 -5.791336e+01 -2.596196e+03 -2.088128e+03  3.332247e+03 0.0022 0.0 9.0
22  1 1 2   0   0  5.791336e+01  2.596196e+03 -1.521367e+03  3.009676e+03 0.0 0.0 9.0
#pdf 2 21 2.101867e-01 7.654936e-01 5000.0 3.679486e-01 3.263699e-03
</event>
<event>
4 7 1.0 5000.0 7.905138e-03 7.739137e-02
 2 -1 0 0 101   0  0.000000e+00  0.000000e+00  3.952171e+03  3.952171e+03 0.0 0.0 9.0
21 -1 0 0 103 101  0.000000e+00  0.000000e+00 -1.526276e+03  1.526276e+03 0.0 0.0 9.0
 2  1 1 2 103   0 -9.051532e+02 -2.272065e+03  9.622561e+02  2.628216e+03 0.0022 0.0 9.0
22  1 1 2   0   0  9.051532e+02  2.272065e+03  1.463639e+03  2.850231e+03 0.0 0.0 9.0
#pdf 2 21 6.080263e-01 2.348117e-01 5000.0 2.659449e-02 3.341349e-01
</event>
<event>
4 7 1.0 5000.0 7.905138e-03 7.739137e-02
 2 -1 0 0 101   0  0.000000e+00  0.000000e+00  1.688562e+03  1.688562e+03 0.0 0.0 9.0
21 -1 0 0 103 101  0.000000e+00  0.000000e+00 -3.177387e+03  3.177387e+03 0.0 0.0 9.0
22  1 1 2   0   0 -1.277680e+03 -8.531084e+02 -2.565215e+03  2.990082e+03 0.0 0.0 9.0
 2  1 1 2 103   0  1.277680e+03  8.531084e+02  1.076391e+03  1.875867e+03 0.0022 0.0 9.0
#pdf 2 21 2.597788e-01 4.888288e-01 5000.0 3.005951e-01 7.685770e-02
</event>
<event>
4 7 1.0 5000.0 7.905138e-03 7.739137e-02
21 -1 0 0 103 101  0.000000e+00  0.000000e+00  1.809385e+03  1.809385e+03 0.0 0.0 9.0
 2 -1 0 0 101   0  0.000000e+00  0.000000e+00 -2.996545e+03  2.996545e+03 0.0 0.0 9.0
 2  1 1 2 103   0  1.742003e+03  1.459541e+03 -7.034414e+01  2.273715e+03 0.0022 0.0 9.0
22  1 1 2   0   0 -1.742003e+03 -1.459541e+03 -1.116816e+03  2.532215e+03 0.0 0.0 9.0
#pdf 21 2 2.783669e-01 4.610069e-01 5000.0 4.695952e-02 4.771120e-03
</event>
<event>
4 7 1.0 5000.0 7.905138e-03 7.739137e-02
 2 -1 0 0 101   0  0.000000e+00  0.000000e+00  3.990490e+03  3.990490e+03 0.0 0.0 9.0
21 -1 0 0 103 101  0.000000e+00  0.000000e+00 -1.552933e+03  1.552933e+03 0.0 0.0 9.0
22  1 1 2   0   0  2.284415e+03  6.237686e+02  2.073522e+03  3.147560e+03 0.0 0.0 9.0
 2  1 1 2 103   0 -2.284415e+03 -6.237686e+02  3.640356e+02  2.395864e+03 0.0022 0.0 9.0
#pdf 2 21 6.139216e-01 2.389128e-01 5000.0 2.501187e-02 3.285417e-01
</event>
<event>
4 7 1.0 5000.0 7.905138e-03 7.739137e-02
21 -1 0 0 103 101  0.000000e+00  0.000000e+00  1.870647e+03  1.870647e+03 0.0 0.0 9.0
 2 -1 0 0 101   0  0.000000e+00  0.000000e+00 -3.368079e+03  3.368079e+03 0.0 0.0 9.0
 2  1 1 2 103   0  2.384202e+03 -2.409278e+02 -1.528248e+03  2.842183e+03 0.0022 0.0 9.0
22  1 1 2   0   0 -2.384202e+03  2.409278e+02  3.081581e+01  2.396542e+03 0.0 0.0 9.0
#pdf 21 2 2.877918e-01 5.181660e-01 5000.0 4.184262e-02 2.187713e-03
</event>
<event>
4 7 1.0 5000.0 7.905138e-03 7.739137e-02
 2 -1 0 0 101   0  0.000000e+00  0.000000e+00  2.208625e+03  2.208625e+03 0.0 0.0 9.0
21 -1 0 0 103 101  0.000000e+00  0.000000e+00 -2.438036e+03  2.438036e+03 0.0 0.0 9.0
 2  1 1 2 103   0 -1.541535e+03  1.723590e+03  7.946519e+01  2.313744e+03 0.0022 0.0 9.0
22  1 1 2   0   0  1.541535e+03 -1.723590e+03 -3.088763e+02  2.332917e+03 0.0 0.0 9.0
#pdf 2 21 3.397884e-01 3.750824e-01 5000.0 2.027675e-01 1.659414e-01
</event>
<event>
4 7 1.0 5000.0 7.905138e-03 7.739137e-02
21 -1 0 0 103 101  0.000000e+00  0.000000e+00  2.362759e+03  2.362759e+03 0.0 0.0 9.0
 2 -1 0 0 101   0  0.000000e+00  0.000000e+00 -2.628071e+03  2.628071e+03 0.0 0.0 9.0
22  1 1 2   0   0 -2.238615e+03  9.128935e+02 -7.374378e+02  2.527565e+03 0.0 0.0 9.0
 2  1 1 2 103   0  2.238615e+03 -9.128935e+02  4.721260e+02  2.463265e+03 0.0022 0.0 9.0
#pdf 21 2 3.635015e-01 4.043187e-01 5000.0 1.652374e-02 9.924596e-03
</event>
<event>
4 7 1.0 5000.0 7.905138e-03 7.739137e-02
21 -1 0 0 103 101  0.000000e+00  0.000000e+00  3.393923e+03  3.393923e+03 0.0 0.0 9.0
 2 -1 0 0 101   0  0.000000e+00  0.000000e+00 -1.860465e+03  1.860465e+03 0.0 0.0 9.0
22  1 1 2   0   0 -1.125325e+03 -2.239653e+03  5.800765e+02  2.572721e+03 0.0 0.0 9.0
 2  1 1 2 103   0  1.125325e+03  2.239653e+03  9.533810e+02  2.681667e+03 0.0022 0.0 9.0
#pdf 21 2 5.221419e-01 2.862254e-01 5000.0 2.068088e-03 4.264449e-02
</event>
<event>
4 7 1.0 5000.0 7.905138e-03 7.739137e-02
 2 -1 0 0 101   0  0.000000e+00  0.000000e+00  1.596465e+03  1.596465e+03 0.0 0.0 9.0
21 -1 0 0 103 101  0.000000e+00  0.000000e+00 -3.940564e+03  3.940564e+03 0.0 0.0 9.0
 2  1 1 2 103   0  2.097372e+03 -7.708522e+02 -2.429498e+03  3.300855e+03 0.0022 0.0 9.0
22  1 1 2   0   0 -2.097372e+03  7.708522e+02  8.539899e+01  2.236174e+03 0.0 0.0 9.0
#pdf 2 21 2.456100e-01 6.062406e-01 5000.0 3.195380e-01 2.708786e-02
</event>
<event>
4 7 1.0 5000.0 7.905138e-03 7.739137e-02
21 -1 0 0 103 101  0.000000e+00  0.000000e+00  1.660700e+03  1.660700e+03 0.0 0.0 9.0
 2 -1 0 0 101   0  0.000000e+00  0.000000e+00 -3.840944e+03  3.840944e+03 0.0 0.0 9.0
 2  1 1 2 103   0  1.505638e+02  2.076997e+03 -2.646565e+03  3.367624e+03 0.0022 0.0 9.0
22  1 1 2   0   0 -1.505638e+02 -2.076997e+03  4.663207e+02  2.134020e+03 0.0 0.0 9.0
#pdf 21 2 2.554923e-01 5.909145e-01 5000.0 6.233242e-02 7.412610e-04
</event>
<event>
4 7 1.0 5000.0 7.905138e-03 7.739137e-02
21 -1 0 0 103 101  0.000000e+00  0.000000e+00  2.459215e+03  2.459215e+03 0.0 0.0 9.0
 2 -1 0 0 101   0  0.000000e+00  0.000000e+00 -2.744006e+03  2.744006e+03 0.0 0.0 9.0
22  1 1 2   0   0 -1.939371e+03 -1.365334e+02  1.583066e+03  2.507169e+03 0.0 0.0 9.0
 2  1 1 2 103   0  1.939371e+03  1.365334e+02 -1.867858e+03  2.696051e+03 0.0022 0.0 9.0
#pdf 21 2 3.783407e-01 4.221548e-01 5000.0 1.375663e-02 7.909595e-03
</event>
<event>
4 7 1.0 5000.0 7.905138e-03 7.739137e-02
21 -1 0 0 103 101  0.000000e+00  0.000000e+00  1.905088e+03  1.905088e+03 0.0 0.0 9.0
 2 -1 0 0 101   0  0.000000e+00  0.000000e+00 -3.034474e+03  3.034474e+03 0.0 0.0 9.0
22  1 1 2   0   0 -2.072235e+03 -5.590813e+02  5.484011e+02  2.215282e+03 0.0 0.0 9.0
 2  1 1 2 103   0  2.072235e+03  5.590813e+02 -1.677787e+03  2.724280e+03 0.0022 0.0 9.0
#pdf 21 2 2.930904e-01 4.668421e-01 5000.0 3.923929e-02 4.416389e-03
</event>
<event>
4 7 1.0 5000.0 7.905138e-03 7.739137e-02
 2 -1 0 0 101   0  0.000000e+00  0.000000e+00  2.660984e+03  2.660984e+03 0.0 0.0 9.0
21 -1 0 0 103 101  0.000000e+00  0.000000e+00 -2.323331e+03  2.323331e+03 0.0 0.0 9.0
 2  1 1 2 103   0 -1.414833e+03  1.647531e+03 -1.044843e+03  2.409940e+03 0.0022 0.0 9.0
22  1 1 2   0   0  1.414833e+03 -1.647531e+03  1.382496e+03  2.574375e+03 0.0 0.0 9.0
#pdf 2 21 4.093821e-01 3.574355e-01 5000.0 1.343375e-01 1.838134e-01
</event>
<event>
4 7 1.0 5000.0 7.905138e-03 7.739137e-02
 2 -1 0 0 101   0  0.000000e+00  0.000000e+00  3.203997e+03  3.203997e+03 0.0 0.0 9.0
21 -1 0 0 103 101  0.000000e+00  0.000000e+00 -1.914620e+03  1.914620e+03 0.0 0.0 9.0
22  1 1 2   0   0  1.376167e+03  1.496185e+03  2.106768e+03  2.927606e+03 0.0 0.0 9.0
 2  1 1 2 103   0 -1.376167e+03 -1.496185e+03 -8.173902e+02  2.191012e+03 0.0022 0.0 9.0
#pdf 2 21 4.929227e-01 2.945569e-01 5000.0 7.446540e-02 2.559040e-01
</event>
<event>
4 7 1.0 5000.0 7.905138e-03 7.739137e-02
 2 -1 0 0 101   0  0.000000e+00  0.000000e+00  1.992729e+03  1.992729e+03 0.0 0.0 9.0
21 -1 0 0 103 101  0.000000e+00  0.000000e+00 -3.158283e+03  3.158283e+03 0.0 0.0 9.0
22  1 1 2   0   0 -9.606070e+02 -1.554872e+03  1.181472e+03  2.176297e+03 0.0 0.0 9.0
 2  1 1 2 103   0  9.606070e+02  1.554872e+03 -2.347026e+03  2.974714e+03 0.0022 0.0 9.0
#pdf 2 21 3.065736e-01 4.858896e-01 5000.0 2.411856e-01 7.860785e-02
</event>
<event>
4 7 1.0 5000.0 7.905138e-03 7.739137e-02
21 -1 0 0 103 101  0.000000e+00  0.000000e+00  2.322457e+03  2.322457e+03 0.0 0.0 9.0
 2 -1 0 0 101   0  0.000000e+00  0.000000e+00 -2.711474e+03  2.711474e+03 0.0 0.0 9.0
22  1 1 2   0   0 -2.435483e+03 -3.714742e+02  2.841161e+02  2.479978e+03 0.0 0.0 9.0
 2  1 1 2 103   0  2.435483e+03  3.714742e+02 -6.731334e+02  2.553953e+03 0.0022 0.0 9.0
#pdf 21 2 3.573011e-01 4.171499e-01 5000.0 1.782918e-02 8.430923e-03
</event>
<event>
4 7 1.0 5000.0 7.905138e-03 7.739137e-02
 2 -1 0 0 101   0  0.000000e+00  0.000000e+00  1.202231e+03  1.202231e+03 0.0 0.0 9.0
21 -1 0 0 103 101  0.000000e+00  0.000000e+00 -5.318439e+03  5.318439e+03 0.0 0.0 9.0
22  1 1 2   0   0 -2.465016e+03 -2.736253e+01 -2.783985e+03  3.718551e+03 0.0 0.0 9.0
 2  1 1 2 103   0  2.465016e+03  2.736253e+01 -1.332223e+03  2.802118e+03 0.0022 0.0 9.0
#pdf 2 21 1.849586e-01 8.182214e-01 5000.0 4.026730e-01 1.149249e-03
</event>
<event>
4 7 1.0 5000.0 7.905138e-03 7.739137e-02
21 -1 0 0 103 101  0.000000e+00  0.000000e+00  5.292753e+03  5.292753e+03 0.0 0.0 9.0
 2 -1 0 0 101   0  0.000000e+00  0.000000e+00 -1.159192e+03  1.159192e+03 0.0 0.0 9.0
 2  1 1 2 103   0 -2.476280e+03 -3.806325e+01  2.123659e+03  3.262413e+03 0.0022 0.0 9.0
22  1 1 2   0   0  2.476280e+03  3.806325e+01  2.009902e+03  3.189533e+03 0.0 0.0 9.0
#pdf 21 2 8.142697e-01 1.783372e-01 5000.0 6.714078e-06 1.677956e-01
</event>
<event>
4 7 1.0 5000.0 7.905138e-03 7.739137e-02
 2 -1 0 0 101   0  0.000000e+00  0.000000e+00  1.937847e+03  1.937847e+03 0.0 0.0 9.0
21 -1 0 0 103 101  0.000000e+00  0.000000e+00 -2.805044e+03  2.805044e+03 0.0 0.0 9.0
 2  1 1 2 103   0  4.470199e+02 -9.424607e+02 -2.554462e+03  2.759228e+03 0.0022 0.0 9.0
22  1 1 2   0   0 -4.470199e+02  9.424607e+02  1.687265e+03  1.983664e+03 0.0 0.0 9.0
#pdf 2 21 2.981304e-01 4.315453e-01 5000.0 2.514906e-01 1.161215e-01
</event>
<event>
4 7 1.0 5000.0 7.905138e-03 7.739137e-02
 2 -1 0 0 101   0  0.000000e+00  0.000000e+00  3.598053e+03  3.598053e+03 0.0 0.0 9.0
21 -1 0 0 103 101  0.000000e+00  0.000000e+00 -1.610004e+03  1.610004e+03 0.0 0.0 9.0
22  1 1 2   0   0 -6.485397e+02  8.180868e+02  3.340340e+03  3.499678e+03 0.0 0.0 9.0
 2  1 1 2 103   0  6.485397e+02 -8.180868e+02 -1.352291e+03  1.708380e+03 0.0022 0.0 9.0
#pdf 2 21 5.535466e-01 2.476929e-01 5000.0 4.490219e-02 3.167132e-01
</event>
<event>
4 7 1.0 5000.0 7.905138e-03 7.739137e-02
21 -1 0 0 103 101  0.000000e+00  0.000000e+00  2.917635e+03  2.917635e+03 0.0 0.0 9.0
 2 -1 0 0 101   0  0.000000e+00  0.000000e+00 -1.991742e+03  1.991742e+03 0.0 0.0 9.0
22  1 1 2   0   0  1.201032e+02  2.403157e+03  3.133318e+02  2.426472e+03 0.0 0.0 9.0
 2  1 1 2 103   0 -1.201032e+02 -2.403157e+03  6.125608e+02  2.482905e+03 0.0022 0.0 9.0
#pdf 21 2 4.488669e-01 3.064219e-01 5000.0 5.597936e-03 3.332998e-02
</event>
<event>
4 7 1.0 5000.0 7.905138e-03 7.739137e-02
21 -1 0 0 103 101  0.000000e+00  0.000000e+00  2.992007e+03  2.992007e+03 0.0 0.0 9.0
 2 -1 0 0 101   0  0.000000e+00  0.000000e+00 -2.031292e+03  2.031292e+03 0.0 0.0 9.0
22  1 1 2   0   0  1.178842e+03  1.809654e+03  1.691462e+03  2.743275e+03 0.0 0.0 9.0
 2  1 1 2 103   0 -1.178842e+03 -1.809654e+03 -7.307474e+02  2.280023e+03 0.0022 0.0 9.0
#pdf 21 2 4.603087e-01 3.125064e-01 5000.0 4.815665e-03 3.092167e-02
</event>
<event>
4 7 1.0 5000.0 7.905138e-03 7.739137e-02
21 -1 0 0 103 101  0.000000e+00  0.000000e+00  3.238054e+03  3.238054e+03 0.0 0.0 9.0
 2 -1 0 0 101   0  0.000000e+00  0.000000e+00 -1.756288e+03  1.756288e+03 0.0 0.0 9.0
22  1 1 2   0   0  1.219690e+03  1.666398e+03 -5.080053e+02  2.126640e+03 0.0 0.0 9.0
 2  1 1 2 103   0 -1.219690e+03 -1.666398e+03  1.989771e+03  2.867702e+03 0.0022 0.0 9.0
#pdf 21 2 4.981621e-01 2.701982e-01 5000.0 2.890963e-03 5.191879e-02
</event>
<event>
4 7 1.0 5000.0 7.905138e-03 7.739137e-02
 2 -1 0 0 101   0  0.000000e+00  0.000000e+00  1.249035e+03  1.249035e+03 0.0 0.0 9.0
21 -1 0 0 103 101  0.000000e+00  0.000000e+00 -4.638955e+03  4.638955e+03 0.0 0.0 9.0
 2  1 1 2 103   0  1.667210e+03 -1.549128e+03 -7.359640e+02  2.391867e+03 0.0022 0.0 9.0
22  1 1 2   0   0 -1.667210e+03  1.549128e+03 -2.653956e+03  3.496122e+03 0.0 0.0 9.0
#pdf 2 21 1.921592e-01 7.136853e-01 5000.0 3.928654e-01 7.395883e-03
</event>
<event>
4 7 1.0 5000.0 7.905138e-03 7.739137e-02
 2 -1 0 0 101   0  0.000000e+00  0.000000e+00  2.281795e+03  2.281795e+03 0.0 0.0 9.0
21 -1 0 0 103 101  0.000000e+00  0.000000e+00 -2.766985e+03  2.766985e+03 0.0 0.0 9.0
22  1 1 2   0   0 -1.914655e+03 -1.623839e+03 -1.375298e+02  2.514293e+03 0.0 0.0 9.0
 2  1 1 2 103   0  1.914655e+03  1.623839e+03 -3.476604e+02  2.534487e+03 0.0022 0.0 9.0
#pdf 2 21 3.510454e-01 4.256901e-01 5000.0 1.905521e-01 1.207590e-01
</event>
<event>
4 7 1.0 5000.0 7.905138e-03 7.739137e-02
21 -1 0 0 103 101  0.000000e+00  0.000000e+00  2.695771e+03  2.695771e+03 0.0 0.0 9.0
 2 -1 0 0 101   0  0.000000e+00  0.000000e+00 -2.359501e+03  2.359501e+03 0.0 0.0 9.0
22  1 1 2   0   0  1.910039e+03  7.986729e+02  1.611661e+03  2.623658e+03 0.0 0.0 9.0
 2  1 1 2 103   0 -1.910039e+03 -7.986729e+02 -1.275391e+03  2.431614e+03 0.0022 0.0 9.0
#pdf 21 2 4.147341e-01 3.630001e-01 5000.0 8.694045e-03 1.662595e-02
</event>
<event>
4 7 1.0 5000.0 7.905138e-03 7.739137e-02
 2 -1 0 0 101   0  0.000000e+00  0.000000e+00  2.915478e+03  2.915478e+03 0.0 0.0 9.0
21 -1 0 0 103 101  0.000000e+00  0.000000e+00 -2.148775e+03  2.148775e+03 0.0 0.0 9.0
22  1 1 2   0   0  3.052933e+02  7.825923e+02  2.768610e+03  2.893243e+03 0.0 0.0 9.0
 2  1 1 2 103   0 -3.052933e+02 -7.825923e+02 -2.001906e+03  2.171010e+03 0.0022 0.0 9.0
#pdf 2 21 4.485351e-01 3.305807e-01 5000.0 1.033118e-01 2.130647e-01
</event>
<event>
4 7 1.0 5000.0 7.905138e-03 7.739137e-02
 2 -1 0 0 101   0  0.000000e+00  0.000000e+00  4.283884e+03  4.283884e+03 0.0 0.0 9.0
21 -1 0 0 103 101  0.000000e+00  0.000000e+00 -1.457173e+03  1.457173e+03 0.0 0.0 9.0
22  1 1 2   0   0  6.710257e+02  2.227586e+03  2.460029e+03  3.385877e+03 0.0 0.0 9.0
 2  1 1 2 103   0 -6.710257e+02 -2.227586e+03  3.666819e+02  2.355180e+03 0.0022 0.0 9.0
#pdf 2 21 6.590590e-01 2.241804e-01 5000.0 1.509820e-02 3.486904e-01
</event>
<event>
4 7 1.0 5000.0 7.905138e-03 7.739137e-02
 2 -1 0 0 101   0  0.000000e+00  0.000000e+00  3.688375e+03  3.688375e+03 0.0 0.0 9.0
21 -1 0 0 103 101  0.000000e+00  0.000000e+00 -1.643989e+03  1.643989e+03 0.0 0.0 9.0
22  1 1 2   0   0 -2.189816e+03  5.562587e+02  2.082462e+03  3.072681e+03 0.0 0.0 9.0
 2  1 1 2 103   0  2.189816e+03 -5.562587e+02 -3.807615e+01  2.259683e+03 0.0022 0.0 9.0
#pdf 2 21 5.674423e-01 2.529214e-01 5000.0 3.956140e-02 3.096866e-01
</event>
<event>
4 7 1.0 5000.0 7.905138e-03 7.739137e-02
21 -1 0 0 103 101  0.000000e+00  0.000000e+00  2.255637e+03  2.255637e+03 0.0 0.0 9.0
 2 -1 0 0 101   0  0.000000e+00  0.000000e+00 -2.564448e+03  2.564448e+03 0.0 0.0 9.0
22  1 1 2   0   0  1.988940e+03  5.624792e+02 -1.386652e+03  2.488989e+03 0.0 0.0 9.0
 2  1 1 2 103   0 -1.988940e+03 -5.624792e+02  1.077841e+03  2.331095e+03 0.0022 0.0 9.0
#pdf 21 2 3.470210e-01 3.945304e-01 5000.0 2.024729e-02 1.122540e-02
</event>
<event>
4 7 1.0 5000.0 7.905138e-03 7.739137e-02
21 -1 0 0 103 101  0.000000e+00  0.000000e+00  4.091253e+03  4.091253e+03 0.0 0.0 9.0
 2 -1 0 0 101   0  0.000000e+00  0.000000e+00 -1.350568e+03  1.350568e+03 0.0 0.0 9.0
22  1 1 2   0   0  2.253049e+03 -6.629544e+02  1.255902e+03  2.663274e+03 0.0 0.0 9.0
 2  1 1 2 103   0 -2.253049e+03  6.629544e+02  1.484783e+03  2.778546e+03 0.0022 0.0 9.0
#pdf 21 2 6.294235e-01 2.077796e-01 5000.0 3.954647e-04 1.136748e-01
</event>
<event>
4 7 1.0 5000.0 7.905138e-03 7.739137e-02
 2 -1 0 0 101   0  0.000000e+00  0.000000e+00  1.672586e+03  1.672586e+03 0.0 0.0 9.0
21 -1 0 0 103 101  0.000000e+00  0.000000e+00 -3.736777e+03  3.736777e+03 0.0 0.0 9.0
22  1 1 2   0   0  4.140977e+02 -1.005725e+03  1.403213e+03  1.775378e+03 0.0 0.0 9.0
 2  1 1 2 103   0 -4.140977e+02  1.005725e+03 -3.467404e+03  3.633985e+03 0.0022 0.0 9.0
#pdf 2 21 2.573209e-01 5.748887e-01 5000.0 3.038416e-01 3.688830e-02
</event>
<event>
4 7 1.0 5000.0 7.905138e-03 7.739137e-02
 2 -1 0 0 101   0  0.000000e+00  0.000000e+00  1.850294e+03  1.850294e+03 0.0 0.0 9.0
21 -1 0 0 103 101  0.000000e+00  0.000000e+00 -3.356844e+03  3.356844e+03 0.0 0.0 9.0
 2  1 1 2 103   0 -6.788405e+02  1.930100e+03 -2.239895e+03  3.033684e+03 0.0022 0.0 9.0
22  1 1 2   0   0  6.788405e+02 -1.930100e+03  7.333452e+02  2.173454e+03 0.0 0.0 9.0
#pdf 2 21 2.846607e-01 5.164375e-01 5000.0 2.683419e-01 6.173105e-02
</event>
<event>
4 7 1.0 5000.0 7.905138e-03 7.739137e-02
21 -1 0 0 103 101  0.000000e+00  0.000000e+00  3.299430e+03  3.299430e+03 0.0 0.0 9.0
 2 -1 0 0 101   0  0.000000e+00  0.000000e+00 -1.921256e+03  1.921256e+03 0.0 0.0 9.0
 2  1 1 2 103   0 -3.740496e+02  3.939021e+02 -1.859778e+03  1.937485e+03 0.0022 0.0 9.0
22  1 1 2   0   0  3.740496e+02 -3.939021e+02  3.237952e+03  3.283201e+03 0.0 0.0 9.0
#pdf 21 2 5.076046e-01 2.955778e-01 5000.0 2.536472e-03 3.806133e-02
</event>
<event>
4 7 1.0 5000.0 7.905138e-03 7.739137e-02
 2 -1 0 0 101   0  0.000000e+00  0.000000e+00  3.370507e+03  3.370507e+03 0.0 0.0 9.0
21 -1 0 0 103 101  0.000000e+00  0.000000e+00 -1.848906e+03  1.848906e+03 0.0 0.0 9.0
22  1 1 2   0   0 -1.871654e+03  1.173539e+03 -4.545177e+02  2.255409e+03 0.0 0.0 9.0
 2  1 1 2 103   0  1.871654e+03 -1.173539e+03  1.976118e+03  2.964005e+03 0.0022 0.0 9.0
#pdf 2 21 5.185395e-01 2.844472e-01 5000.0 6.067393e-02 2.686128e-01
</event>
<event>
4 7 1.0 5000.0 7.905138e-03 7.739137e-02
21 -1 0 0 103 101  0.000000e+00  0.000000e+00  2.464648e+03  2.464648e+03 0.0 0.0 9.0
 2 -1 0 0 101   0  0.000000e+00  0.000000e+00 -2.816233e+03  2.816233e+03 0.0 0.0 9.0
22  1 1 2   0   0  1.184608e+03 -2.353152e+03 -1.958333e+02  2.641774e+03 0.0 0.0 9.0
 2  1 1 2 103   0 -1.184608e+03  2.353152e+03 -1.557517e+02  2.639106e+03 0.0022 0.0 9.0
#pdf 21 2 3.791766e-01 4.332666e-01 5000.0 1.361463e-02 6.858754e-03
</event>
<event>
4 7 1.0 5000.0 7.905138e-03 7.739137e-02
 2 -1 0 0 101   0  0.000000e+00  0.000000e+00  3.984091e+03  3.984091e+03 0.0 0.0 9.0
21 -1 0 0 103 101  0.000000e+00  0.000000e+00 -1.659536e+03  1.659536e+03 0.0 0.0 9.0
 2  1 1 2 103   0 -1.352152e+03  2.142335e+03  6.791329e+02  2.622811e+03 0.0022 0.0 9.0
22  1 1 2   0   0  1.352152e+03 -2.142335e+03  1.645422e+03  3.020816e+03 0.0 0.0 9.0
#pdf 2 21 6.129371e-01 2.553133e-01 5000.0 2.527117e-02 3.065027e-01
</event>
<event>
4 7 1.0 5000.0 7.905138e-03 7.739137e-02
 2 -1 0 0 101   0  0.000000e+00  0.000000e+00  3.917470e+03  3.917470e+03 0.0 0.0 9.0
21 -1 0 0 103 101  0.000000e+00  0.000000e+00 -1.514525e+03  1.514525e+03 0.0 0.0 9.0
 2  1 1 2 103   0 -1.465415e+03 -3.263541e+02  3.340235e+03  3.662120e+03 0.0022 0.0 9.0
22  1 1 2   0   0  1.465415e+03  3.263541e+02 -9.372901e+02  1.769876e+03 0.0 0.0 9.0
#pdf 2 21 6.026877e-01 2.330038e-01 5000.0 2.808854e-02 3.366109e-01
</event>
<event>
4 7 1.0 5000.0 7.905138e-03 7.739137e-02
 2 -1 0 0 101   0  0.000000e+00  0.000000e+00  3.158235e+03  3.158235e+03 0.0 0.0 9.0
21 -1 0 0 103 101  0.000000e+00  0.000000e+00 -1.995735e+03  1.995735e+03 0.0 0.0 9.0
22  1 1 2   0   0 -2.446017e+03  1.805892e+02  3.098270e+01  2.452870e+03 0.0 0.0 9.0
 2  1 1 2 103   0  2.446017e+03 -1.805892e+02  1.131517e+03  2.701100e+03 0.0022 0.0 9.0
#pdf 2 21 4.858823e-01 3.070361e-01 5000.0 7.861225e-02 2.406270e-01
</event>
<event>
4 7 1.0 5000.0 7.905138e-03 7.739137e-02
 2 -1 0 0 101   0  0.000000e+00  0.000000e+00  2.862762e+03  2.862762e+03 0.0 0.0 9.0
21 -1 0 0 103 101  0.000000e+00  0.000000e+00 -2.147241e+03  2.147241e+03 0.0 0.0 9.0
 2  1 1 2 103   0 -5.381887e+02 -3.299651e+02 -2.064678e+03  2.159032e+03 0.0022 0.0 9.0
22  1 1 2   0   0  5.381887e+02  3.299651e+02  2.780199e+03  2.850971e+03 0.0 0.0 9.0
#pdf 2 21 4.404249e-01 3.303447e-01 5000.0 1.093153e-01 2.133326e-01
</event>
<event>
4 7 1.0 5000.0 7.905138e-03 7.739137e-02
 2 -1 0 0 101   0  0.000000e+00  0.000000e+00  3.455425e+03  3.455425e+03 0.0 0.0 9.0
21 -1 0 0 103 101  0.000000e+00  0.000000e+00 -1.819263e+03  1.819263e+03 0.0 0.0 9.0
 2  1 1 2 103   0  1.068558e+03 -1.573040e+03  2.536894e+03  3.170505e+03 0.0022 0.0 9.0
22  1 1 2   0   0 -1.068558e+03  1.573040e+03 -9.007309e+02  2.104183e+03 0.0 0.0 9.0
#pdf 2 21 5.316039e-01 2.798865e-01 5000.0 5.439644e-02 2.744181e-01
</event>
<event>
4 7 1.0 5000.0 7.905138e-03 7.739137e-02
 2 -1 0 0 101   0  0.000000e+00  0.000000e+00  2.876815e+03  2.876815e+03 0.0 0.0 9.0
21 -1 0 0 103 101  0.000000e+00  0.000000e+00 -2.018105e+03  2.018105e+03 0.0 0.0 9.0
22  1 1 2   0   0 -6.872580e+02  3.631740e+02 -1.887249e+03  2.041061e+03 0.0 0.0 9.0
 2  1 1 2 103   0  6.872580e+02 -3.631740e+02  2.745959e+03  2.853859e+03 0.0022 0.0 9.0
#pdf 2 21 4.425869e-01 3.104776e-01 5000.0 1.076926e-01 2.364927e-01
</event>
<event>
4 7 1.0 5000.0 7.905138e-03 7.739137e-02
21 -1 0 0 103 101  0.000000e+00  0.000000e+00  1.849112e+03  1.849112e+03 0.0 0.0 9.0
 2 -1 0 0 101   0  0.000000e+00  0.000000e+00 -3.331721e+03  3.331721e+03 0.0 0.0 9.0
 2  1 1 2 103   0  2.360496e+03  3.296489e+02 -1.815504e+01  2.383472e+03 0.0022 0.0 9.0
22  1 1 2   0   0 -2.360496e+03 -3.296489e+02 -1.464454e+03  2.797362e+03 0.0 0.0 9.0
#pdf 21 2 2.844788e-01 5.125725e-01 5000.0 4.356005e-02 2.366986e-03
</event>
<event>
4 7 1.0 5000.0 7.905138e-03 7.739137e-02
21 -1 0 0 103 101  0.000000e+00  0.000000e+00  4.111367e+03  4.111367e+03 0.0 0.0 9.0
 2 -1 0 0 101   0  0.000000e+00  0.000000e+00 -1.448397e+03  1.448397e+03 0.0 0.0 9.0
22  1 1 2   0   0 -6.630093e+01  2.392459e+03  7.891697e+02  2.520128e+03 0.0 0.0 9.0
 2  1 1 2 103   0  6.630093e+01 -2.392459e+03  1.873801e+03  3.039636e+03 0.0022 0.0 9.0
#pdf 21 2 6.325180e-01 2.228303e-01 5000.0 3.751903e-04 9.381332e-02
</event>
<event>
4 7 1.0 5000.0 7.905138e-03 7.739137e-02
21 -1 0 0 103 101  0.000000e+00  0.000000e+00  3.171104e+03  3.171104e+03 0.0 0.0 9.0
 2 -1 0 0 101   0  0.000000e+00  0.000000e+00 -2.018940e+03  2.018940e+03 0.0 0.0 9.0
 2  1 1 2 103   0  6.106344e+01 -1.523362e+03  2.647143e+03  3.054787e+03 0.0022 0.0 9.0
22  1 1 2   0   0 -6.106344e+01  1.523362e+03 -1.494979e+03  2.135257e+03 0.0 0.0 9.0
#pdf 21 2 4.878622e-01 3.106061e-01 5000.0 3.327676e-03 3.165773e-02
</event>
<event>
4 7 1.0 5000.0 7.905138e-03 7.739137e-02
21 -1 0 0 103 101  0.000000e+00  0.000000e+00  4.179668e+03  4.179668e+03 0.0 0.0 9.0
 2 -1 0 0 101   0  0.000000e+00  0.000000e+00 -1.377579e+03  1.377579e+03 0.0 0.0 9.0
22  1 1 2   0   0  1.634007e+03 -8.034063e+02 -4.086592e+02  1.866130e+03 0.0 0.0 9.0
 2  1 1 2 103   0 -1.634007e+03  8.034063e+02  3.210749e+03  3.691117e+03 0.0022 0.0 9.0
#pdf 21 2 6.430259e-01 2.119352e-01 5000.0 3.131284e-04 1.078366e-01
</event>
<event>
4 7 1.0 5000.0 7.905138e-03 7.739137e-02
21 -1 0 0 103 101  0.000000e+00  0.000000e+00  1.928720e+03  1.928720e+03 0.0 0.0 9.0
 2 -1 0 0 101   0  0.000000e+00  0.000000e+00 -3.163859e+03  3.163859e+03 0.0 0.0 9.0
 2  1 1 2 103   0 -7.173811e+02  1.573751e+03 -2.435618e+03  2.987233e+03 0.0022 0.0 9.0
22  1 1 2   0   0  7.173811e+02 -1.573751e+03  1.200478e+03  2.105345e+03 0.0 0.0 9.0
#pdf 21 2 2.967261e-01 4.867475e-01 5000.0 3.752430e-02 3.378398e-03
</event>
<event>
4 7 1.0 5000.0 7.905138e-03 7.739137e-02
 2 -1 0 0 101   0  0.000000e+00  0.000000e+00  3.696782e+03  3.696782e+03 0.0 0.0 9.0
21 -1 0 0 103 101  0.000000e+00  0.000000e+00 -2.161705e+03  2.161705e+03 0.0 0.0 9.0
22  1 1 2   0   0 -1.902318e+03 -1.770044e+02 -1.391451e+03  2.363532e+03 0.0 0.0 9.0
 2  1 1 2 103   0  1.902318e+03  1.770044e+02  2.926528e+03  3.494956e+03 0.0022 0.0 9.0
#pdf 2 21 5.687357e-01 3.325700e-01 5000.0 3.908602e-02 2.108149e-01
</event>
<event>
4 7 1.0 5000.0 7.905138e-03 7.739137e-02
21 -1 0 0 103 101  0.000000e+00  0.000000e+00  1.810229e+03  1.810229e+03 0.0 0.0 9.0
 2 -1 0 0 101   0  0.000000e+00  0.000000e+00 -2.588295e+03  2.588295e+03 0.0 0.0 9.0
22  1 1 2   0   0  8.500246e+01 -1.176744e+03 -2.232898e+03  2.525428e+03 0.0 0.0 9.0
 2  1 1 2 103   0 -8.500246e+01  1.176744e+03  1.454832e+03  1.873096e+03 0.0022 0.0 9.0
#pdf 21 2 2.784968e-01 3.981993e-01 5000.0 4.688454e-02 1.071974e-02
</event>
<event>
4 7 1.0 5000.0 7.905138e-03 7.739137e-02
21 -1 0 0 103 101  0.000000e+00  0.000000e+00  2.389114e+03  2.389114e+03 0.0 0.0 9.0
 2 -1 0 0 101   0  0.000000e+00  0.000000e+00 -2.554825e+03  2.554825e+03 0.0 0.0 9.0
22  1 1 2   0   0  6.361441e+02 -3.812592e+02 -2.440816e+03  2.551004e+03 0.0 0.0 9.0
 2  1 1 2 103   0 -6.361441e+02  3.812592e+02  2.275105e+03  2.392936e+03 0.0022 0.0 9.0
#pdf 21 2 3.675560e-01 3.930501e-01 5000.0 1.570993e-02 1.143617e-02
</event>
<event>
4 7 1.0 5000.0 7.905138e-03 7.739137e-02
21 -1 0 0 103 101  0.000000e+00  0.000000e+00  1.744369e+03  1.744369e+03 0.0 0.0 9.0
 2 -1 0 0 101   0  0.000000e+00  0.000000e+00 -3.489348e+03  3.489348e+03 0.0 0.0 9.0
22  1 1 2   0   0 -1.777874e+02  8.213818e+02 -3.332844e+03  3.437168e+03 0.0 0.0 9.0
 2  1 1 2 103   0  1.777874e+02 -8.213818e+02  1.587865e+03  1.796550e+03 0.0022 0.0 9.0
#pdf 21 2 2.683645e-01 5.368228e-01 5000.0 5.310394e-02 1.675476e-03
</event>
<event>
4 7 1.0 5000.0 7.905138e-03 7.739137e-02
 2 -1 0 0 101   0  0.000000e+00  0.000000e+00  4.232809e+03  4.232809e+03 0.0 0.0 9.0
21 -1 0 0 103 101  0.000000e+00  0.000000e+00 -1.465091e+03  1.465091e+03 0.0 0.0 9.0
22  1 1 2   0   0 -2.074159e+03  1.354904e+03  1.672257e+03  2.989038e+03 0.0 0.0 9.0
 2  1 1 2 103   0  2.074159e+03 -1.354904e+03  1.095460e+03  2.708862e+03 0.0022 0.0 9.0
#pdf 2 21 6.512014e-01 2.253986e-01 5000.0 1.656151e-02 3.470249e-01
</event>
<event>
4 7 1.0 5000.0 7.905138e-03 7.739137e-02
21 -1 0 0 103 101  0.000000e+00  0.000000e+00  1.904972e+03  1.904972e+03 0.0 0.0 9.0
 2 -1 0 0 101   0  0.000000e+00  0.000000e+00 -3.264750e+03  3.264750e+03 0.0 0.0 9.0
 2  1 1 2 103   0 -1.146178e+03  2.463829e+02  1.601541e+03  1.984782e+03 0.0022 0.0 9.0
22  1 1 2   0   0  1.146178e+03 -2.463829e+02 -2.961319e+03  3.184939e+03 0.0 0.0 9.0
#pdf 21 2 2.930726e-01 5.022692e-01 5000.0 3.924784e-02 2.731116e-03
</event>
<event>
4 7 1.0 5000.0 7.905138e-03 7.739137e-02
 2 -1 0 0 101   0  0.000000e+00  0.000000e+00  2.942162e+03  2.942162e+03 0.0 0.0 9.0
21 -1 0 0 103 101  0.000000e+00  0.000000e+00 -2.098591e+03  2.098591e+03 0.0 0.0 9.0
 2  1 1 2 103   0  8.906175e+02  1.709458e+03 -1.168748e+03  2.254200e+03 0.0022 0.0 9.0
22  1 1 2   0   0 -8.906175e+02 -1.709458e+03  2.012319e+03  2.786553e+03 0.0 0.0 9.0
#pdf 2 21 4.526403e-01 3.228601e-01 5000.0 1.003782e-01 2.219214e-01
</event>
<event>
4 7 1.0 5000.0 7.905138e-03 7.739137e-02
 2 -1 0 0 101   0  0.000000e+00  0.000000e+00  2.034663e+03  2.034663e+03 0.0 0.0 9.0
21 -1 0 0 103 101  0.000000e+00  0.000000e+00 -3.018852e+03  3.018852e+03 0.0 0.0 9.0
22  1 1 2   0   0  6.591090e+02 -1.417068e+03  1.468952e+03  2.144837e+03 0.0 0.0 9.0
 2  1 1 2 103   0 -6.591090e+02  1.417068e+03 -2.453142e+03  2.908678e+03 0.0022 0.0 9.0
#pdf 2 21 3.130251e-01 4.644388e-01 5000.0 2.334571e-01 9.222888e-02
</event>
<event>
4 7 1.0 5000.0 7.905138e-03 7.739137e-02
21 -1 0 0 103 101  0.000000e+00  0.000000e+00  3.073140e+03  3.073140e+03 0.0 0.0 9.0
 2 -1 0 0 101   0  0.000000e+00  0.000000e+00 -1.968510e+03  1.968510e+03 0.0 0.0 9.0
 2  1 1 2 103   0  2.837295e+02 -6.637576e+02 -1.857499e+03  1.992832e+03 0.0022 0.0 9.0
22  1 1 2   0   0 -2.837295e+02  6.637576e+02  2.962129e+03  3.048817e+03 0.0 0.0 9.0
#pdf 21 2 4.727907e-01 3.028476e-01 5000.0 4.079835e-03 3.480420e-02
</event>
<event>
4 7 1.0 5000.0 7.905138e-03 7.739137e-02
21 -1 0 0 103 101  0.000000e+00  0.000000e+00  3.622814e+03  3.622814e+03 0.0 0.0 9.0
 2 -1 0 0 101   0  0.000000e+00  0.000000e+00 -1.702322e+03  1.702322e+03 0.0 0.0 9.0
22  1 1 2   0   0 -2.015252e+03 -1.451053e+03  9.387723e+02  2.654824e+03 0.0 0.0 9.0
 2  1 1 2 103   0  2.015252e+03  1.451053e+03  9.817198e+02  2.670312e+03 0.0022 0.0 9.0
#pdf 21 2 5.573560e-01 2.618957e-01 5000.0 1.240941e-03 5.752889e-02
</event>
<event>
4 7 1.0 5000.0 7.905138e-03 7.739137e-02
 2 -1 0 0 101   0  0.000000e+00  0.000000e+00  3.040481e+03  3.040481e+03 0.0 0.0 9.0
21 -1 0 0 103 101  0.000000e+00  0.000000e+00 -2.089826e+03  2.089826e+03 0.0 0.0 9.0
22  1 1 2   0   0  1.837118e+03 -1.070087e+03  1.853442e+03  2.820521e+03 0.0 0.0 9.0
 2  1 1 2 103   0 -1.837118e+03  1.070087e+03 -9.027875e+02  2.309787e+03 0.0022 0.0 9.0
#pdf 2 21 4.677664e-01 3.215118e-01 5000.0 9.001992e-02 2.234870e-01
</event>
<event>
4 7 1.0 5000.0 7.905138e-03 7.739137e-02
21 -1 0 0 103 101  0.000000e+00  0.000000e+00  2.576119e+03  2.576119e+03 0.0 0.0 9.0
 2 -1 0 0 101   0  0.000000e+00  0.000000e+00 -1.790752e+03  1.790752e+03 0.0 0.0 9.0
 2  1 1 2 103   0 -4.482430e+02 -1.048832e+03  2.242801e+03  2.516173e+03 0.0022 0.0 9.0
22  1 1 2   0   0  4.482430e+02  1.048832e+03 -1.457434e+03  1.850698e+03 0.0 0.0 9.0
#pdf 21 2 3.963260e-01 2.755004e-01 5000.0 1.097503e-02 4.864381e-02
</event>
<event>
4 7 1.0 5000.0 7.905138e-03 7.739137e-02
 2 -1 0 0 101   0  0.000000e+00  0.000000e+00  3.134246e+03  3.134246e+03 0.0 0.0 9.0
21 -1 0 0 103 101  0.000000e+00  0.000000e+00 -2.031390e+03  2.031390e+03 0.0 0.0 9.0
 2  1 1 2 103   0 -3.273201e+02  2.486562e+03  8.349989e+02  2.643360e+03 0.0022 0.0 9.0
22  1 1 2   0   0  3.273201e+02 -2.486562e+03  2.678574e+02  2.522276e+03 0.0 0.0 9.0
#pdf 2 21 4.821917e-01 3.125215e-01 5000.0 8.084857e-02 2.340556e-01
</event>
<event>
4 7 1.0 5000.0 7.905138e-03 7.739137e-02
 2 -1 0 0 101   0  0.000000e+00  0.000000e+00  2.979005e+03  2.979005e+03 0.0 0.0 9.0
21 -1 0 0 103 101  0.000000e+00  0.000000e+00 -2.023934e+03  2.023934e+03 0.0 0.0 9.0
22  1 1 2   0   0  1.252785e+03 -1.488989e+03 -1.048105e+03  2.210222e+03 0.0 0.0 9.0
 2  1 1 2 103   0 -1.252785e+03  1.488989e+03  2.003175e+03  2.792717e+03 0.0022 0.0 9.0
#pdf 2 21 4.583084e-01 3.113745e-01 5000.0 9.639998e-02 2.354216e-01
</event>
<event>
4 7 1.0 5000.0 7.905138e-03 7.739137e-02
21 -1 0 0 103 101  0.000000e+00  0.000000e+00  2.439022e+03  2.439022e+03 0.0 0.0 9.0
 2 -1 0 0 101   0  0.000000e+00  0.000000e+00 -2.633252e+03  2.633252e+03 0.0 0.0 9.0
 2  1 1 2 103   0  1.272091e+03 -2.028115e+03  7.348141e+02  2.504280e+03 0.0022 0.0 9.0
22  1 1 2   0   0 -1.272091e+03  2.028115e+03 -9.290445e+02  2.567994e+03 0.0 0.0 9.0
#pdf 21 2 3.752341e-01 4.051157e-01 5000.0 1.429326e-02 9.825076e-03
</event>
<event>
4 7 1.0 5000.0 7.905138e-03 7.739137e-02
21 -1 0 0 103 101  0.000000e+00  0.000000e+00  5.278723e+03  5.278723e+03 0.0 0.0 9.0
 2 -1 0 0 101   0  0.000000e+00  0.000000e+00 -1.178888e+03  1.178888e+03 0.0 0.0 9.0
22  1 1 2   0   0 -2.068612e+03  5.566345e+02  3.954037e+02  2.178381e+03 0.0 0.0 9.0
 2  1 1 2 103   0  2.068612e+03 -5.566345e+02  3.704432e+03  4.279230e+03 0.0022 0.0 9.0
#pdf 21 2 8.121113e-01 1.813674e-01 5000.0 7.159783e-06 1.611298e-01
</event>
<event>
4 7 1.0 5000.0 7.905138e-03 7.739137e-02
21 -1 0 0 103 101  0.000000e+00  0.000000e+00  1.916228e+03  1.916228e+03 0.0 0.0 9.0
 2 -1 0 0 101   0  0.000000e+00  0.000000e+00 -3.258922e+03  3.258922e+03 0.0 0.0 9.0
22  1 1 2   0   0 -8.422423e+02  3.871622e+02  1.731623e+03  1.964124e+03 0.0 0.0 9.0
 2  1 1 2 103   0  8.422423e+02 -3.871622e+02 -3.074316e+03  3.211026e+03 0.0022 0.0 9.0
#pdf 21 2 2.948044e-01 5.013726e-01 5000.0 3.842528e-02 2.765250e-03
</event>
<event>
4 7 1.0 5000.0 7.905138e-03 7.739137e-02
21 -1 0 0 103 101  0.000000e+00  0.000000e+00  3.740931e+03  3.740931e+03 0.0 0.0 9.0
 2 -1 0 0 101   0  0.000000e+00  0.000000e+00 -1.700945e+03  1.700945e+03 0.0 0.0 9.0
22  1 1 2   0   0 -1.530155e+03 -2.005247e+03  1.049089e+03  2.731845e+03 0.0 0.0 9.0
 2  1 1 2 103   0  1.530155e+03  2.005247e+03  9.908965e+02  2.710030e+03 0.0022 0.0 9.0
#pdf 21 2 5.755278e-01 2.616838e-01 5000.0 9.413639e-04 5.768111e-02
</event>
<event>
4 7 1.0 5000.0 7.905138e-03 7.739137e-02
21 -1 0 0 103 101  0.000000e+00  0.000000e+00  4.353059e+03  4.353059e+03 0.0 0.0 9.0
 2 -1 0 0 101   0  0.000000e+00  0.000000e+00 -1.462845e+03  1.462845e+03 0.0 0.0 9.0
22  1 1 2   0   0 -4.669997e+02 -2.223764e+03  2.709897e+03  3.536490e+03 0.0 0.0 9.0
 2  1 1 2 103   0  4.669997e+02  2.223764e+03  1.803167e+02  2.279414e+03 0.0022 0.0 9.0
#pdf 21 2 6.697014e-01 2.250531e-01 5000.0 1.938826e-04 9.118435e-02
</event>
<event>
4 7 1.0 5000.0 7.905138e-03 7.739137e-02
 2 -1 0 0 101   0  0.000000e+00  0.000000e+00  2.206258e+03  2.206258e+03 0.0 0.0 9.0
21 -1 0 0 103 101  0.000000e+00  0.000000e+00 -2.993482e+03  2.993482e+03 0.0 0.0 9.0
 2  1 1 2 103   0 -1.652692e+03  1.776913e+03 -1.249396e+03  2.729433e+03 0.0022 0.0 9.0
22  1 1 2   0   0  1.652692e+03 -1.776913e+03  4.621716e+02  2.470307e+03 0.0 0.0 9.0
#pdf 2 21 3.394242e-01 4.605357e-01 5000.0 2.031695e-01 9.486679e-02
</event>
<event>
4 7 1.0 5000.0 7.905138e-03 7.739137e-02
 2 -1 0 0 101   0  0.000000e+00  0.000000e+00  2.006294e+03  2.006294e+03 0.0 0.0 9.0
21 -1 0 0 103 101  0.000000e+00  0.000000e+00 -3.049930e+03  3.049930e+03 0.0 0.0 9.0
22  1 1 2   0   0 -1.302326e+03 -1.848739e+03 -1.546463e+03  2.739605e+03 0.0 0.0 9.0
 2  1 1 2 103   0  1.302326e+03  1.848739e+03  5.028273e+02  2.316619e+03 0.0022 0.0 9.0
#pdf 2 21 3.086607e-01 4.692200e-01 5000.0 2.386706e-01 8.906540e-02
</event>
<event>
4 7 1.0 5000.0 7.905138e-03 7.739137e-02
21 -1 0 0 103 101  0.000000e+00  0.000000e+00  2.999209e+03  2.999209e+03 0.0 0.0 9.0
 2 -1 0 0 101   0  0.000000e+00  0.000000e+00 -2.038371e+03  2.038371e+03 0.0 0.0 9.0
 2  1 1 2 103   0  1.482660e+03 -6.546186e+02  2.382610e+03  2.881603e+03 0.0022 0.0 9.0
22  1 1 2   0   0 -1.482660e+03  6.546186e+02 -1.421772e+03  2.155978e+03 0.0 0.0 9.0
#pdf 21 2 4.614168e-01 3.135956e-01 5000.0 4.745193e-03 3.050724e-02
</event>
<event>
4 7 1.0 5000.0 7.905138e-03 7.739137e-02
 2 -1 0 0 101   0  0.000000e+00  0.000000e+00  1.480833e+03  1.480833e+03 0.0 0.0 9.0
21 -1 0 0 103 101  0.000000e+00  0.000000e+00 -4.326239e+03  4.326239e+03 0.0 0.0 9.0
22  1 1 2   0   0  1.310814e+03  1.004949e+03 -3.622799e+03  3.981561e+03 0.0 0.0 9.0
 2  1 1 2 103   0 -1.310814e+03 -1.004949e+03  7.773930e+02  1.825512e+03 0.0022 0.0 9.0
#pdf 2 21 2.278205e-01 6.655752e-01 5000.0 3.437142e-01 1.394328e-02
</event>
<event>
4 7 1.0 5000.0 7.905138e-03 7.739137e-02
 2 -1 0 0 101   0  0.000000e+00  0.000000e+00  1.969727e+03  1.969727e+03 0.0 0.0 9.0
21 -1 0 0 103 101  0.000000e+00  0.000000e+00 -3.145659e+03  3.145659e+03 0.0 0.0 9.0
 2  1 1 2 103   0 -1.634242e+03 -9.672141e+02  1.065617e+03  2.177565e+03 0.0022 0.0 9.0
22  1 1 2   0   0  1.634242e+03  9.672141e+02 -2.241549e+03  2.937821e+03 0.0 0.0 9.0
#pdf 2 21 3.030350e-01 4.839476e-01 5000.0 2.454836e-01 7.977924e-02
</event>
<event>
4 7 1.0 5000.0 7.905138e-03 7.739137e-02
 2 -1 0 0 101   0  0.000000e+00  0.000000e+00  2.515182e+03  2.515182e+03 0.0 0.0 9.0
21 -1 0 0 103 101  0.000000e+00  0.000000e+00 -2.417691e+03  2.417691e+03 0.0 0.0 9.0
22  1 1 2   0   0 -1.661411e+03  1.508449e+03 -9.738189e+02  2.446227e+03 0.0 0.0 9.0
 2  1 1 2 103   0  1.661411e+03 -1.508449e+03  1.071311e+03  2.486646e+03 0.0022 0.0 9.0
#pdf 2 21 3.869511e-01 3.719524e-01 5000.0 1.545443e-01 1.690225e-01
</event>
<event>
4 7 1.0 5000.0 7.905138e-03 7.739137e-02
21 -1 0 0 103 101  0.000000e+00  0.000000e+00  3.723774e+03  3.723774e+03 0.0 0.0 9.0
 2 -1 0 0 101   0  0.000000e+00  0.000000e+00 -1.690676e+03  1.690676e+03 0.0 0.0 9.0
22  1 1 2   0   0  2.477282e+03 -3.475680e+02  1.226784e+03  2.786167e+03 0.0 0.0 9.0
 2  1 1 2 103   0 -2.477282e+03  3.475680e+02  8.063141e+02  2.628283e+03 0.0022 0.0 9.0
#pdf 21 2 5.728884e-01 2.601041e-01 5000.0 9.803318e-04 5.883125e-02
</event>
<event>
4 7 1.0 5000.0 7.905138e-03 7.739137e-02
 2 -1 0 0 101   0  0.000000e+00  0.000000e+00  2.010427e+03  2.010427e+03 0.0 0.0 9.0
21 -1 0 0 103 101  0.000000e+00  0.000000e+00 -3.167271e+03  3.167271e+03 0.0 0.0 9.0
 2  1 1 2 103   0  6.269450e+02  1.638098e+03  1.282779e+03  2.173004e+03 0.0022 0.0 9.0
22  1 1 2   0   0 -6.269450e+02 -1.638098e+03 -2.439623e+03  3.004694e+03 0.0 0.0 9.0
#pdf 2 21 3.092964e-01 4.872725e-01 5000.0 2.379073e-01 7.778100e-02
</event>
<event>
4 7 1.0 5000.0 7.905138e-03 7.739137e-02
21 -1 0 0 103 101  0.000000e+00  0.000000e+00  1.789564e+03  1.789564e+03 0.0 0.0 9.0
 2 -1 0 0 101   0  0.000000e+00  0.000000e+00 -3.452460e+03  3.452460e+03 0.0 0.0 9.0
 2  1 1 2 103   0 -2.426316e+03  5.168363e+02 -9.957230e+02  2.673124e+03 0.0022 0.0 9.0
22  1 1 2   0   0  2.426316e+03 -5.168363e+02 -6.671728e+02  2.568900e+03 0.0 0.0 9.0
#pdf 21 2 2.753176e-01 5.311477e-01 5000.0 4.875315e-02 1.819894e-03
</event>
<event>
4 7 1.0 5000.0 7.905138e-03 7.739137e-02
21 -1 0 0 103 101  0.000000e+00  0.000000e+00  2.836971e+03  2.836971e+03 0.0 0.0 9.0
 2 -1 0 0 101   0  0.000000e+00  0.000000e+00 -2.183570e+03  2.183570e+03 0.0 0.0 9.0
22  1 1 2   0   0 -2.099307e+03  8.145358e+02 -7.426618e+02  2.371098e+03 0.0 0.0 9.0
 2  1 1 2 103   0  2.099307e+03 -8.145358e+02  1.396062e+03  2.649443e+03 0.0022 0.0 9.0
#pdf 21 2 4.364570e-01 3.359339e-01 5000.0 6.584688e-03 2.319313e-02
</event>
<event>
4 7 1.0 5000.0 7.905138e-03 7.739137e-02
 2 -1 0 0 101   0  0.000000e+00  0.000000e+00  3.137637e+03  3.137637e+03 0.0 0.0 9.0
21 -1 0 0 103 101  0.000000e+00  0.000000e+00 -1.977469e+03  1.977469e+03 0.0 0.0 9.0
 2  1 1 2 103   0 -2.390615e+02 -2.227118e+03  1.698911e+03  2.811316e+03 0.0022 0.0 9.0
22  1 1 2   0   0  2.390615e+02  2.227118e+03 -5.387422e+02  2.303789e+03 0.0 0.0 9.0
#pdf 2 21 4.827134e-01 3.042260e-01 5000.0 8.052983e-02 2.440323e-01
</event>
<event>
4 7 1.0 5000.0 7.905138e-03 7.739137e-02
 2 -1 0 0 101   0  0.000000e+00  0.000000e+00  1.341780e+03  1.341780e+03 0.0 0.0 9.0
21 -1 0 0 103 101  0.000000e+00  0.000000e+00 -3.680994e+03  3.680994e+03 0.0 0.0 9.0
 2  1 1 2 103   0 -6.263667e+01 -1.865905e+03  1.928004e+02  1.876885e+03 0.0022 0.0 9.0
22  1 1 2   0   0  6.263667e+01  1.865905e+03 -2.532014e+03  3.145890e+03 0.0 0.0 9.0
#pdf 2 21 2.064278e-01 5.663068e-01 5000.0 3.731748e-01 3.998235e-02
</event>
<event>
4 7 1.0 5000.0 7.905138e-03 7.739137e-02
21 -1 0 0 103 101  0.000000e+00  0.000000e+00  2.821814e+03  2.821814e+03 0.0 0.0 9.0
 2 -1 0 0 101   0  0.000000e+00  0.000000e+00 -1.918288e+03  1.918288e+03 0.0 0.0 9.0
 2  1 1 2 103   0 -2.598277e+02  2.267887e+03 -6.339031e+00  2.282731e+03 0.0022 0.0 9.0
22  1 1 2   0   0  2.598277e+02 -2.267887e+03  9.098650e+02  2.457372e+03 0.0 0.0 9.0
#pdf 21 2 4.341253e-01 2.951213e-01 5000.0 6.783989e-03 3.827592e-02
</event>
<event>
4 7 1.0 5000.0 7.905138e-03 7.739137e-02
 2 -1 0 0 101   0  0.000000e+00  0.000000e+00  2.822411e+03  2.822411e+03 0.0 0.0 9.0
21 -1 0 0 103 101  0.000000e+00  0.000000e+00 -2.216832e+03  2.216832e+03 0.0 0.0 9.0
22  1 1 2   0   0  8.365209e+02 -6.533605e+02  2.584310e+03  2.793798e+03 0.0 0.0 9.0
 2  1 1 2 103   0 -8.365209e+02  6.533605e+02 -1.978732e+03  2.245446e+03 0.0022 0.0 9.0
#pdf 2 21 4.342171e-01 3.410511e-01 5000.0 1.140473e-01 2.013766e-01
</event>
<event>
4 7 1.0 5000.0 7.905138e-03 7.739137e-02
 2 -1 0 0 101   0  0.000000e+00  0.000000e+00  3.792327e+03  3.792327e+03 0.0 0.0 9.0
21 -1 0 0 103 101  0.000000e+00  0.000000e+00 -1.666738e+03  1.666738e+03 0.0 0.0 9.0
22  1 1 2   0   0  1.827112e+03  1.436715e+03  2.103193e+03  3.134631e+03 0.0 0.0 9.0
 2  1 1 2 103   0 -1.827112e+03 -1.436715e+03  2.239607e+01  2.324434e+03 0.0022 0.0 9.0
#pdf 2 21 5.834349e-01 2.564212e-01 5000.0 3.399285e-02 3.050330e-01
</event>
<event>
4 7 1.0 5000.0 7.905138e-03 7.739137e-02
 2 -1 0 0 101   0  0.000000e+00  0.000000e+00  2.769727e+03  2.769727e+03 0.0 0.0 9.0
21 -1 0 0 103 101  0.000000e+00  0.000000e+00 -2.273772e+03  2.273772e+03 0.0 0.0 9.0
22  1 1 2   0   0  2.481642e+03 -3.379762e+02  8.924605e+01  2.506141e+03 0.0 0.0 9.0
 2  1 1 2 103   0 -2.481642e+03  3.379762e+02  4.067093e+02  2.537359e+03 0.0022 0.0 9.0
#pdf 2 21 4.261119e-01 3.498111e-01 5000.0 1.204205e-01 1.918705e-01
</event>
<event>
4 7 1.0 5000.0 7.905138e-03 7.739137e-02
21 -1 0 0 103 101  0.000000e+00  0.000000e+00  1.946220e+03  1.946220e+03 0.0 0.0 9.0
 2 -1 0 0 101   0  0.000000e+00  0.000000e+00 -3.298687e+03  3.298687e+03 0.0 0.0 9.0
 2  1 1 2 103   0  7.865704e+02 -2.230233e+03 -1.617653e+03  2.865211e+03 0.0022 0.0 9.0
22  1 1 2   0   0 -7.865704e+02  2.230233e+03  2.651864e+02  2.379697e+03 0.0 0.0 9.0
#pdf 21 2 2.994185e-01 5.074903e-01 5000.0 3.627736e-02 2.540497e-03
</event>
<event>
4 7 1.0 5000.0 7.905138e-03 7.739137e-02
21 -1 0 0 103 101  0.000000e+00  0.000000e+00  2.336455e+03  2.336455e+03 0.0 0.0 9.0
 2 -1 0 0 101   0  0.000000e+00  0.000000e+00 -2.599666e+03  2.599666e+03 0.0 0.0 9.0
 2  1 1 2 103   0  1.097650e+02  1.559131e+03  1.776645e+03  2.366306e+03 0.0022 0.0 9.0
22  1 1 2   0   0 -1.097650e+02 -1.559131e+03 -2.039856e+03  2.569815e+03 0.0 0.0 9.0
#pdf 21 2 3.594546e-01 3.999487e-01 5000.0 1.736404e-02 1.048656e-02
</event>
<event>
4 7 1.0 5000.0 7.905138e-03 7.739137e-02
21 -1 0 0 103 101  0.000000e+00  0.000000e+00  2.534731e+03  2.534731e+03 0.0 0.0 9.0
 2 -1 0 0 101   0  0.000000e+00  0.000000e+00 -2.396410e+03  2.396410e+03 0.0 0.0 9.0
22  1 1 2   0   0  1.961691e+03  1.484620e+03  2.172904e+02  2.469726e+03 0.0 0.0 9.0
 2  1 1 2 103   0 -1.961691e+03 -1.484620e+03 -7.896860e+01  2.461415e+03 0.0022 0.0 9.0
#pdf 21 2 3.899587e-01 3.686784e-01 5000.0 1.188969e-02 1.548936e-02
</event>
<event>
4 7 1.0 5000.0 7.905138e-03 7.739137e-02
 2 -1 0 0 101   0  0.000000e+00  0.000000e+00  3.664885e+03  3.664885e+03 0.0 0.0 9.0
21 -1 0 0 103 101  0.000000e+00  0.000000e+00 -1.462549e+03  1.462549e+03 0.0 0.0 9.0
 2  1 1 2 103   0 -2.927603e+02 -2.276206e+03  1.439323e+03  2.708961e+03 0.0022 0.0 9.0
22  1 1 2   0   0  2.927603e+02  2.276206e+03  7.630132e+02  2.418473e+03 0.0 0.0 9.0
#pdf 2 21 5.638285e-01 2.250075e-01 5000.0 4.091213e-02 3.475595e-01
</event>
<event>
4 7 1.0 5000.0 7.905138e-03 7.739137e-02
21 -1 0 0 103 101  0.000000e+00  0.000000e+00  1.949371e+03  1.949371e+03 0.0 0.0 9.0
 2 -1 0 0 101   0  0.000000e+00  0.000000e+00 -3.144729e+03  3.144729e+03 0.0 0.0 9.0
22  1 1 2   0   0  1.073707e+03  9.156008e+02  1.495229e+03  2.055938e+03 0.0 0.0 9.0
 2  1 1 2 103   0 -1.073707e+03 -9.156008e+02 -2.690587e+03  3.038162e+03 0.0022 0.0 9.0
#pdf 21 2 2.999033e-01 4.838045e-01 5000.0 3.605450e-02 3.516023e-03
</event>
<event>
4 7 1.0 5000.0 7.905138e-03 7.739137e-02
 2 -1 0 0 101   0  0.000000e+00  0.000000e+00  3.006757e+03  3.006757e+03 0.0 0.0 9.0
21 -1 0 0 103 101  0.000000e+00  0.000000e+00 -2.086181e+03  2.086181e+03 0.0 0.0 9.0
 2  1 1 2 103   0 -5.803626e+02  5.211560e+02 -1.959532e+03  2.109074e+03 0.0022 0.0 9.0
22  1 1 2   0   0  5.803626e+02 -5.211560e+02  2.880108e+03  2.983864e+03 0.0 0.0 9.0
#pdf 2 21 4.625779e-01 3.209509e-01 5000.0 9.347871e-02 2.241396e-01
</event>
<event>
4 7 1.0 5000.0 7.905138e-03 7.739137e-02
 2 -1 0 0 101   0  0.000000e+00  0.000000e+00  2.329468e+03  2.329468e+03 0.0 0.0 9.0
21 -1 0 0 103 101  0.000000e+00  0.000000e+00 -2.661751e+03  2.661751e+03 0.0 0.0 9.0
22  1 1 2   0   0 -7.382450e+02 -6.318714e+02 -2.463878e+03  2.648578e+03 0.0 0.0 9.0
 2  1 1 2 103   0  7.382450e+02  6.318714e+02  2.131596e+03  2.342641e+03 0.0022 0.0 9.0
#pdf 2 21 3.583797e-01 4.095001e-01 5000.0 1.828297e-01 1.342359e-01
</event>
<event>
4 7 1.0 5000.0 7.905138e-03 7.739137e-02
 2 -1 0 0 101   0  0.000000e+00  0.000000e+00  3.420822e+03  3.420822e+03 0.0 0.0 9.0
21 -1 0 0 103 101  0.000000e+00  0.000000e+00 -2.257773e+03  2.257773e+03 0.0 0.0 9.0
 2  1 1 2 103   0  2.678315e+03 -4.603492e+01 -1.747454e+02  2.684404e+03 0.0022 0.0 9.0
22  1 1 2   0   0 -2.678315e+03  4.603492e+01  1.337794e+03  2.994191e+03 0.0 0.0 9.0
#pdf 2 21 5.262803e-01 3.473497e-01 5000.0 5.689727e-02 1.945155e-01
</event>
<event>
4 7 1.0 5000.0 7.905138e-03 7.739137e-02
21 -1 0 0 103 101  0.000000e+00  0.000000e+00  2.037310e+03  2.037310e+03 0.0 0.0 9.0
 2 -1 0 0 101   0  0.000000e+00  0.000000e+00 -2.208580e+03  2.208580e+03 0.0 0.0 9.0
22  1 1 2   0   0  4.618814e+02  2.028804e+03 -4.985032e+02  2.139600e+03 0.0 0.0 9.0
 2  1 1 2 103   0 -4.618814e+02 -2.028804e+03  3.272333e+02  2.106291e+03 0.0022 0.0 9.0
#pdf 21 2 3.134324e-01 3.397816e-01 5000.0 3.056899e-02 2.212200e-02
</event>
<event>
4 7 1.0 5000.0 7.905138e-03 7.739137e-02
21 -1 0 0 103 101  0.000000e+00  0.000000e+00  2.481196e+03  2.481196e+03 0.0 0.0 9.0
 2 -1 0 0 101   0  0.000000e+00  0.000000e+00 -2.423729e+03  2.423729e+03 0.0 0.0 9.0
 2  1 1 2 103   0  2.024161e+03  8.379647e+02 -1.073310e+03  2.439551e+03 0.0022 0.0 9.0
22  1 1 2   0   0 -2.024161e+03 -8.379647e+02  1.130777e+03  2.465374e+03 0.0 0.0 9.0
#pdf 21 2 3.817225e-01 3.728813e-01 5000.0 1.318887e-02 1.470823e-02
</event>
<event>
4 7 1.0 5000.0 7.905138e-03 7.739137e-02
 2 -1 0 0 101   0  0.000000e+00  0.000000e+00  2.090462e+03  2.090462e+03 0.0 0.0 9.0
21 -1 0 0 103 101  0.000000e+00  0.000000e+00 -2.975328e+03  2.975328e+03 0.0 0.0 9.0
 2  1 1 2 103   0 -4.242405e+01  2.487629e+03 -2.673684e+02  2.502316e+03 0.0022 0.0 9.0
22  1 1 2   0   0  4.242405e+01 -2.487629e+03 -6.174984e+02  2.563475e+03 0.0 0.0 9.0
#pdf 2 21 3.216095e-01 4.577428e-01 5000.0 2.233733e-01 9.679225e-02
</event>
<event>
4 7 1.0 5000.0 7.905138e-03 7.739137e-02
 2 -1 0 0 101   0  0.000000e+00  0.000000e+00  3.951142e+03  3.951142e+03 0.0 0.0 9.0
21 -1 0 0 103 101  0.000000e+00  0.000000e+00 -1.568961e+03  1.568961e+03 0.0 0.0 9.0
22  1 1 2   0   0  1.610316e+03 -1.559189e+03  2.392715e+03  3.278608e+03 0.0 0.0 9.0
 2  1 1 2 103   0 -1.610316e+03  1.559189e+03 -1.053444e+01  2.241495e+03 0.0022 0.0 9.0
#pdf 2 21 6.078680e-01 2.413787e-01 5000.0 2.663798e-02 3.252039e-01
</event>
<event>
4 7 1.0 5000.0 7.905138e-03 7.739137e-02
21 -1 0 0 103 101  0.000000e+00  0.000000e+00  1.951616e+03  1.951616e+03 0.0 0.0 9.0
 2 -1 0 0 101   0  0.000000e+00  0.000000e+00 -3.409499e+03  3.409499e+03 0.0 0.0 9.0
 2  1 1 2 103   0 -5.977126e+02 -9.825769e+02  1.670443e+03  2.028078e+03 0.0022 0.0 9.0
22  1 1 2   0   0  5.977126e+02  9.825769e+02 -3.128326e+03  3.333038e+03 0.0 0.0 9.0
#pdf 21 2 3.002487e-01 5.245383e-01 5000.0 3.590011e-02 1.999255e-03
</event>
<event>
4 7 1.0 5000.0 7.905138e-03 7.739137e-02
21 -1 0 0 103 101  0.000000e+00  0.000000e+00  2.307032e+03  2.307032e+03 0.0 0.0 9.0
 2 -1 0 0 101   0  0.000000e+00  0.000000e+00 -2.699210e+03  2.699210e+03 0.0 0.0 9.0
 2  1 1 2 103   0 -1.898564e+03  3.564409e+02  1.388518e+03  2.378986e+03 0.0022 0.0 9.0
22  1 1 2   0   0  1.898564e+03 -3.564409e+02 -1.780696e+03  2.627255e+03 0.0 0.0 9.0
#pdf 21 2 3.549280e-01 4.152630e-01 5000.0 1.836082e-02 8.635749e-03
</event>
<event>
4 7 1.0 5000.0 7.905138e-03 7.739137e-02
 2 -1 0 0 101   0  0.000000e+00  0.000000e+00  2.204706e+03  2.204706e+03 0.0 0.0 9.0
21 -1 0 0 103 101  0.000000e+00  0.000000e+00 -3.016380e+03  3.016380e+03 0.0 0.0 9.0
 2  1 1 2 103   0  2.576480e+02  1.828610e+03 -2.228000e+03  2.893818e+03 0.0022 0.0 9.0
22  1 1 2   0   0 -2.576480e+02 -1.828610e+03  1.416326e+03  2.327268e+03 0.0 0.0 9.0
#pdf 2 21 3.391855e-01 4.640585e-01 5000.0 2.034333e-01 9.248343e-02
</event>
<event>
4 7 1.0 5000.0 7.905138e-03 7.739137e-02
21 -1 0 0 103 101  0.000000e+00  0.000000e+00  3.502636e+03  3.502636e+03 0.0 0.0 9.0
 2 -1 0 0 101   0  0.000000e+00  0.000000e+00 -1.793777e+03  1.793777e+03 0.0 0.0 9.0
22  1 1 2   0   0  9.081013e+02 -2.272724e+03  2.825247e+02  2.463684e+03 0.0 0.0 9.0
 2  1 1 2 103   0 -9.081013e+02  2.272724e+03  1.426334e+03  2.832728e+03 0.0022 0.0 9.0
#pdf 21 2 5.388670e-01 2.759657e-01 5000.0 1.626262e-03 4.836647e-02
</event>
<event>
4 7 1.0 5000.0 7.905138e-03 7.739137e-02
 2 -1 0 0 101   0  0.000000e+00  0.000000e+00  4.232999e+03  4.232999e+03 0.0 0.0 9.0
21 -1 0 0 103 101  0.000000e+00  0.000000e+00 -1.388634e+03  1.388634e+03 0.0 0.0 9.0
 2  1 1 2 103   0 -2.048621e+03 -3.987757e+02  2.852566e+03  3.534544e+03 0.0022 0.0 9.0
22  1 1 2   0   0  2.048621e+03  3.987757e+02 -8.201293e+00  2.087089e+03 0.0 0.0 9.0
#pdf 2 21 6.512306e-01 2.136360e-01 5000.0 1.655590e-02 3.631663e-01
</event>
<event>
4 7 1.0 5000.0 7.905138e-03 7.739137e-02
 2 -1 0 0 101   0  0.000000e+00  0.000000e+00  1.647224e+03  1.647224e+03 0.0 0.0 9.0
21 -1 0 0 103 101  0.000000e+00  0.000000e+00 -3.347974e+03  3.347974e+03 0.0 0.0 9.0
22  1 1 2   0   0 -1.913418e+03 -1.078138e+03  3.390938e+01  2.196520e+03 0.0 0.0 9.0
 2  1 1 2 103   0  1.913418e+03  1.078138e+03 -1.734659e+03  2.798677e+03 0.0022 0.0 9.0
#pdf 2 21 2.534190e-01 5.150729e-01 5000.0 3.090229e-01 6.242442e-02
</event>
<event>
4 7 1.0 5000.0 7.905138e-03 7.739137e-02
21 -1 0 0 103 101  0.000000e+00  0.000000e+00  2.186456e+03  2.186456e+03 0.0 0.0 9.0
 2 -1 0 0 101   0  0.000000e+00  0.000000e+00 -2.842757e+03  2.842757e+03 0.0 0.0 9.0
22  1 1 2   0   0  1.879763e+03  8.384308e+02  1.090784e+03  2.329439e+03 0.0 0.0 9.0
 2  1 1 2 103   0 -1.879763e+03 -8.384308e+02 -1.747085e+03  2.699775e+03 0.0022 0.0 9.0
#pdf 21 2 3.363778e-01 4.373473e-01 5000.0 2.306654e-02 6.509885e-03
</event>
<event>
4 7 1.0 5000.0 7.905138e-03 7.739137e-02
 2 -1 0 0 101   0  0.000000e+00  0.000000e+00  1.991255e+03  1.991255e+03 0.0 0.0 9.0
21 -1 0 0 103 101  0.000000e+00  0.000000e+00 -3.135409e+03  3.135409e+03 0.0 0.0 9.0
22  1 1 2   0   0 -2.114311e+03 -8.572800e+02 -1.617341e+03  2.796611e+03 0.0 0.0 9.0
 2  1 1 2 103   0  2.114311e+03  8.572800e+02  4.731874e+02  2.330053e+03 0.0022 0.0 9.0
#pdf 2 21 3.063470e-01 4.823706e-01 5000.0 2.414596e-01 8.073919e-02
</event>
<event>
4 7 1.0 5000.0 7.905138e-03 7.739137e-02
 2 -1 0 0 101   0  0.000000e+00  0.000000e+00  2.864946e+03  2.864946e+03 0.0 0.0 9.0
21 -1 0 0 103 101  0.000000e+00  0.000000e+00 -2.208887e+03  2.208887e+03 0.0 0.0 9.0
 2  1 1 2 103   0  8.535334e+02  5.150236e+02  2.657252e+03  2.838090e+03 0.0022 0.0 9.0
22  1 1 2   0   0 -8.535334e+02 -5.150236e+02 -2.001193e+03  2.235742e+03 0.0 0.0 9.0
#pdf 2 21 4.407609e-01 3.398287e-01 5000.0 1.090624e-01 2.027230e-01
</event>
<event>
4 7 1.0 5000.0 7.905138e-03 7.739137e-02
 2 -1 0 0 101   0  0.000000e+00  0.000000e+00  2.061624e+03  2.061624e+03 0.0 0.0 9.0
21 -1 0 0 103 101  0.000000e+00  0.000000e+00 -2.876846e+03  2.876846e+03 0.0 0.0 9.0
22  1 1 2   0   0  2.109333e+03  9.967775e+02  3.007644e+02  2.352299e+03 0.0 0.0 9.0
 2  1 1 2 103   0 -2.109333e+03 -9.967775e+02 -1.115986e+03  2.586170e+03 0.0022 0.0 9.0
#pdf 2 21 3.171729e-01 4.425916e-01 5000.0 2.285582e-01 1.076890e-01
</event>
<event>
4 7 1.0 5000.0 7.905138e-03 7.739137e-02
21 -1 0 0 103 101  0.000000e+00  0.000000e+00  2.270960e+03  2.270960e+03 0.0 0.0 9.0
 2 -1 0 0 101   0  0.000000e+00  0.000000e+00 -2.758691e+03  2.758691e+03 0.0 0.0 9.0
22  1 1 2   0   0 -1.589887e+03 -1.543214e+03  9.259609e+02  2.401386e+03 0.0 0.0 9.0
 2  1 1 2 103   0  1.589887e+03  1.543214e+03 -1.413692e+03  2.628265e+03 0.0022 0.0 9.0
#pdf 21 2 3.493784e-01 4.244139e-01 5000.0 1.966974e-02 7.683875e-03
</event>
<event>
4 7 1.0 5000.0 7.905138e-03 7.739137e-02
21 -1 0 0 103 101  0.000000e+00  0.000000e+00  1.669764e+03  1.669764e+03 0.0 0.0 9.0
 2 -1 0 0 101   0  0.000000e+00  0.000000e+00 -3.706255e+03  3.706255e+03 0.0 0.0 9.0
22  1 1 2   0   0  2.205262e+02 -2.477819e+03 -1.038584e+03  2.695714e+03 0.0 0.0 9.0
 2  1 1 2 103   0 -2.205262e+02  2.477819e+03 -9.979062e+02  2.680305e+03 0.0022 0.0 9.0
#pdf 21 2 2.568868e-01 5.701930e-01 5000.0 6.125257e-02 1.021833e-03
</event>
<event>
4 7 1.0 5000.0 7.905138e-03 7.739137e-02
 2 -1 0 0 101   0  0.000000e+00  0.000000e+00  2.053745e+03  2.053745e+03 0.0 0.0 9.0
21 -1 0 0 103 101  0.000000e+00  0.000000e+00 -2.980608e+03  2.980608e+03 0.0 0.0 9.0
22  1 1 2   0   0  1.021635e+03  2.146292e+03 -1.161735e+03  2.645739e+03 0.0 0.0 9.0
 2  1 1 2 103   0 -1.021635e+03 -2.146292e+03  2.348713e+02  2.388613e+03 0.0022 0.0 9.0
#pdf 2 21 3.159607e-01 4.585551e-01 5000.0 2.299844e-01 9.622922e-02
</event>
<event>
4 7 1.0 5000.0 7.905138e-03 7.739137e-02
 2 -1 0 0 101   0  0.000000e+00  0.000000e+00  1.674288e+03  1.674288e+03 0.0 0.0 9.0
21 -1 0 0 103 101  0.000000e+00  0.000000e+00 -3.904843e+03  3.904843e+03 0.0 0.0 9.0
 2  1 1 2 103   0  1.379095e+03  1.398666e+03 -2.901188e+03  3.503579e+03 0.0022 0.0 9.0
22  1 1 2   0   0 -1.379095e+03 -1.398666e+03  6.706332e+02  2.075552e+03 0.0 0.0 9.0
#pdf 2 21 2.575828e-01 6.007451e-01 5000.0 3.034952e-01 2.864674e-02
</event>
<event>
4 7 1.0 5000.0 7.905138e-03 7.739137e-02
21 -1 0 0 103 101  0.000000e+00  0.000000e+00  1.321222e+03  1.321222e+03 0.0 0.0 9.0
 2 -1 0 0 101   0  0.000000e+00  0.000000e+00 -4.699130e+03  4.699130e+03 0.0 0.0 9.0
 2  1 1 2 103   0 -2.254840e+03  7.445078e+02 -2.601034e+03  3.521927e+03 0.0022 0.0 9.0
22  1 1 2   0   0  2.254840e+03 -7.445078e+02 -7.768744e+02  2.498426e+03 0.0 0.0 9.0
#pdf 21 2 2.032650e-01 7.229431e-01 5000.0 1.205427e-01 6.730777e-05
</event>
<event>
4 7 1.0 5000.0 7.905138e-03 7.739137e-02
21 -1 0 0 103 101  0.000000e+00  0.000000e+00  2.748409e+03  2.748409e+03 0.0 0.0 9.0
 2 -1 0 0 101   0  0.000000e+00  0.000000e+00 -2.314448e+03  2.314448e+03 0.0 0.0 9.0
 2  1 1 2 103   0 -2.234533e+03  1.134702e+03  5.015133e+02  2.555817e+03 0.0022 0.0 9.0
22  1 1 2   0   0  2.234533e+03 -1.134702e+03 -6.755155e+01  2.507040e+03 0.0 0.0 9.0
#pdf 21 2 4.228322e-01 3.560689e-01 5000.0 7.841315e-03 1.810248e-02
</event>
<event>
4 7 1.0 5000.0 7.905138e-03 7.739137e-02
 2 -1 0 0 101   0  0.000000e+00  0.000000e+00  1.846527e+03  1.846527e+03 0.0 0.0 9.0
21 -1 0 0 103 101  0.000000e+00  0.000000e+00 -3.388507e+03  3.388507e+03 0.0 0.0 9.0
 2  1 1 2 103   0 -1.884739e+03 -1.605966e+03 -1.141847e+03  2.726753e+03 0.0022 0.0 9.0
22  1 1 2   0   0  1.884739e+03  1.605966e+03 -4.001329e+02  2.508281e+03 0.0 0.0 9.0
#pdf 2 21 2.840810e-01 5.213088e-01 5000.0 2.690776e-01 5.930231e-02
</event>
<event>
4 7 1.0 5000.0 7.905138e-03 7.739137e-02
21 -1 0 0 103 101  0.000000e+00  0.000000e+00  2.193639e+03  2.193639e+03 0.0 0.0 9.0
 2 -1 0 0 101   0  0.000000e+00  0.000000e+00 -2.881247e+03  2.881247e+03 0.0 0.0 9.0
22  1 1 2   0   0 -4.387578e+02  1.152972e+03 -2.554755e+03  2.837010e+03 0.0 0.0 9.0
 2  1 1 2 103   0  4.387578e+02 -1.152972e+03  1.867147e+03  2.237876e+03 0.0022 0.0 9.0
#pdf 21 2 3.374830e-01 4.432688e-01 5000.0 2.275488e-02 6.026052e-03
</event>
<event>
4 7 1.0 5000.0 7.905138e-03 7.739137e-02
 2 -1 0 0 101   0  0.000000e+00  0.000000e+00  2.247960e+03  2.247960e+03 0.0 0.0 9.0
21 -1 0 0 103 101  0.000000e+00  0.000000e+00 -2.731033e+03  2.731033e+03 0.0 0.0 9.0
 2  1 1 2 103   0  6.436747e+02  2.043095e+02 -2.636782e+03  2.721889e+03 0.0022 0.0 9.0
22  1 1 2   0   0 -6.436747e+02 -2.043095e+02  2.153708e+03  2.257104e+03 0.0 0.0 9.0
#pdf 2 21 3.458400e-01 4.201590e-01 5000.0 1.961482e-01 1.252587e-01
</event>
<event>
4 7 1.0 5000.0 7.905138e-03 7.739137e-02
 2 -1 0 0 101   0  0.000000e+00  0.000000e+00  2.081341e+03  2.081341e+03 0.0 0.0 9.0
21 -1 0 0 103 101  0.000000e+00  0.000000e+00 -3.085393e+03  3.085393e+03 0.0 0.0 9.0
 2  1 1 2 103   0  9.296859e+02 -1.517585e+03 -2.341074e+03  2.940749e+03 0.0022 0.0 9.0
22  1 1 2   0   0 -9.296859e+02  1.517585e+03  1.337023e+03  2.225985e+03 0.0 0.0 9.0
#pdf 2 21 3.202064e-01 4.746758e-01 5000.0 2.250074e-01 8.554190e-02
</event>
<event>
4 7 1.0 5000.0 7.905138e-03 7.739137e-02
21 -1 0 0 103 101  0.000000e+00  0.000000e+00  2.425310e+03  2.425310e+03 0.0 0.0 9.0
 2 -1 0 0 101   0  0.000000e+00  0.000000e+00 -2.586388e+03  2.586388e+03 0.0 0.0 9.0
22  1 1 2   0   0 -4.401269e+02 -1.642783e+03  1.758982e+03  2.446726e+03 0.0 0.0 9.0
 2  1 1 2 103   0  4.401269e+02  1.642783e+03 -1.920060e+03  2.564972e+03 0.0022 0.0 9.0
#pdf 21 2 3.731246e-01 3.979058e-01 5000.0 1.466502e-02 1.075935e-02
</event>
<event>
4 7 1.0 5000.0 7.905138e-03 7.739137e-02
21 -1 0 0 103 101  0.000000e+00  0.000000e+00  1.517908e+03  1.517908e+03 0.0 0.0 9.0
 2 -1 0 0 101   0  0.000000e+00  0.000000e+00 -4.176740e+03  4.176740e+03 0.0 0.0 9.0
22  1 1 2   0   0 -1.703567e+03 -1.741528e+03 -6.098977e+02  2.511381e+03 0.0 0.0 9.0
 2  1 1 2 103   0  1.703567e+03  1.741528e+03 -2.048934e+03  3.183267e+03 0.0022 0.0 9.0
#pdf 21 2 2.335244e-01 6.425754e-01 5000.0 8.195808e-02 3.156055e-04
</event>
<event>
4 7 1.0 5000.0 7.905138e-03 7.739137e-02
 2 -1 0 0 101   0  0.000000e+00  0.000000e+00  2.544647e+03  2.544647e+03 0.0 0.0 9.0
21 -1 0 0 103 101  0.000000e+00  0.000000e+00 -2.448792e+03  2.448792e+03 0.0 0.0 9.0
 2  1 1 2 103   0  6.678935e+02 -1.974234e+03 -1.326236e+03  2.470341e+03 0.0022 0.0 9.0
22  1 1 2   0   0 -6.678935e+02  1.974234e+03  1.422092e+03  2.523098e+03 0.0 0.0 9.0
#pdf 2 21 3.914842e-01 3.767372e-01 5000.0 1.503224e-01 1.643246e-01
</event>
<event>
4 7 1.0 5000.0 7.905138e-03 7.739137e-02
 2 -1 0 0 101   0  0.000000e+00  0.000000e+00  4.358847e+03  4.358847e+03 0.0 0.0 9.0
21 -1 0 0 103 101  0.000000e+00  0.000000e+00 -1.433834e+03  1.433834e+03 0.0 0.0 9.0
22  1 1 2   0   0  1.839590e+03 -1.452547e+03  4.552472e+02  2.387726e+03 0.0 0.0 9.0
 2  1 1 2 103   0 -1.839590e+03  1.452547e+03  2.469766e+03  3.404956e+03 0.0022 0.0 9.0
#pdf 2 21 6.705919e-01 2.205899e-01 5000.0 1.311525e-02 3.536038e-01
</event>
<event>
4 7 1.0 5000.0 7.905138e-03 7.739137e-02
21 -1 0 0 103 101  0.000000e+00  0.000000e+00  3.167020e+03  3.167020e+03 0.0 0.0 9.0
 2 -1 0 0 101   0  0.000000e+00  0.000000e+00 -1.980084e+03  1.980084e+03 0.0 0.0 9.0
 2  1 1 2 103   0 -6.442014e+02 -1.405136e+03 -1.431271e+03  2.106641e+03 0.0022 0.0 9.0
22  1 1 2   0   0  6.442014e+02  1.405136e+03  2.618207e+03  3.040462e+03 0.0 0.0 9.0
#pdf 21 2 4.872338e-01 3.046282e-01 5000.0 3.356178e-03 3.406529e-02
</event>
<event>
4 7 1.0 5000.0 7.905138e-03 7.739137e-02
 2 -1 0 0 101   0  0.000000e+00  0.000000e+00  3.260165e+03  3.260165e+03 0.0 0.0 9.0
21 -1 0 0 103 101  0.000000e+00  0.000000e+00 -1.886644e+03  1.886644e+03 0.0 0.0 9.0
22  1 1 2   0   0  8.369088e+02  5.451099e+02 -1.668734e+03  1.944797e+03 0.0 0.0 9.0
 2  1 1 2 103   0 -8.369088e+02 -5.451099e+02  3.042256e+03  3.202012e+03 0.0022 0.0 9.0
#pdf 2 21 5.015639e-01 2.902529e-01 5000.0 6.958929e-02 2.612802e-01
</event>
<event>
4 7 1.0 5000.0 7.905138e-03 7.739137e-02
21 -1 0 0 103 101  0.000000e+00  0.000000e+00  2.538636e+03  2.538636e+03 0.0 0.0 9.0
 2 -1 0 0 101   0  0.000000e+00  0.000000e+00 -2.290110e+03  2.290110e+03 0.0 0.0 9.0
 2  1 1 2 103   0 -1.018362e+03  1.436808e+03  1.773349e+03  2.499248e+03 0.0022 0.0 9.0
22  1 1 2   0   0  1.018362e+03 -1.436808e+03 -1.524822e+03  2.329498e+03 0.0 0.0 9.0
#pdf 21 2 3.905595e-01 3.523245e-01 5000.0 1.180008e-02 1.896661e-02
</event>
<event>
4 7 1.0 5000.0 7.905138e-03 7.739137e-02
21 -1 0 0 103 101  0.000000e+00  0.000000e+00  2.071461e+03  2.071461e+03 0.0 0.0 9.0
 2 -1 0 0 101   0  0.000000e+00  0.000000e+00 -3.137745e+03  3.137745e+03 0.0 0.0 9.0
22  1 1 2   0   0  1.008765e+03 -2.340557e+03 -5.969789e+02  2.617670e+03 0.0 0.0 9.0
 2  1 1 2 103   0 -1.008765e+03  2.340557e+03 -4.693047e+02  2.591536e+03 0.0022 0.0 9.0
#pdf 21 2 3.186863e-01 4.827300e-01 5000.0 2.865057e-02 3.567677e-03
</event>
<event>
4 7 1.0 5000.0 7.905138e-03 7.739137e-02
 2 -1 0 0 101   0  0.000000e+00  0.000000e+00  1.678540e+03  1.678540e+03 0.0 0.0 9.0
21 -1 0 0 103 101  0.000000e+00  0.000000e+00 -3.651596e+03  3.651596e+03 0.0 0.0 9.0
 2  1 1 2 103   0  1.449523e+03 -1.121187e+03 -2.778508e+03  3.328405e+03 0.0022 0.0 9.0
22  1 1 2   0   0 -1.449523e+03  1.121187e+03  8.054516e+02  2.001731e+03 0.0 0.0 9.0
#pdf 2 21 2.582369e-01 5.617841e-01 5000.0 3.026303e-01 4.168969e-02
</event>
<event>
4 7 1.0 5000.0 7.905138e-03 7.739137e-02
 2 -1 0 0 101   0  0.000000e+00  0.000000e+00  2.537708e+03  2.537708e+03 0.0 0.0 9.0
21 -1 0 0 103 101  0.000000e+00  0.000000e+00 -2.309695e+03  2.309695e+03 0.0 0.0 9.0
 2  1 1 2 103   0 -2.230325e+02 -4.263137e+02  2.489365e+03  2.535434e+03 0.0022 0.0 9.0
22  1 1 2   0   0  2.230325e+02  4.263137e+02 -2.261353e+03  2.311969e+03 0.0 0.0 9.0
#pdf 2 21 3.904166e-01 3.553378e-01 5000.0 1.513100e-01 1.860097e-01
</event>
<event>
4 7 1.0 5000.0 7.905138e-03 7.739137e-02
21 -1 0 0 103 101  0.000000e+00  0.000000e+00  2.740525e+03  2.740525e+03 0.0 0.0 9.0
 2 -1 0 0 101   0  0.000000e+00  0.000000e+00 -2.296125e+03  2.296125e+03 0.0 0.0 9.0
 2  1 1 2 103   0 -8.326743e+02 -2.216832e+03 -6.086262e+02  2.445018e+03 0.0022 0.0 9.0
22  1 1 2   0   0  8.326743e+02  2.216832e+03  1.053027e+03  2.591632e+03 0.0 0.0 9.0
#pdf 21 2 4.216193e-01 3.532500e-01 5000.0 7.963936e-03 1.874959e-02
</event>
<event>
4 7 1.0 5000.0 7.905138e-03 7.739137e-02
 2 -1 0 0 101   0  0.000000e+00  0.000000e+00  1.561424e+03  1.561424e+03 0.0 0.0 9.0
21 -1 0 0 103 101  0.000000e+00  0.000000e+00 -4.053553e+03  4.053553e+03 0.0 0.0 9.0
 2  1 1 2 103   0 -2.085953e+03  3.547704e+02  2.726976e+02  2.133407e+03 0.0022 0.0 9.0
22  1 1 2   0   0  2.085953e+03 -3.547704e+02 -2.764826e+03  3.481570e+03 0.0 0.0 9.0
#pdf 2 21 2.402191e-01 6.236235e-01 5000.0 3.267706e-01 2.255975e-02
</event>
<event>
4 7 1.0 5000.0 7.905138e-03 7.739137e-02
21 -1 0 0 103 101  0.000000e+00  0.000000e+00  2.090465e+03  2.090465e+03 0.0 0.0 9.0
 2 -1 0 0 101   0  0.000000e+00  0.000000e+00 -2.950582e+03  2.950582e+03 0.0 0.0 9.0
22  1 1 2   0   0  9.079554e+02  2.156962e+03 -1.273826e+03  2.664489e+03 0.0 0.0 9.0
 2  1 1 2 103   0 -9.079554e+02 -2.156962e+03  4.137088e+02  2.376557e+03 0.0022 0.0 9.0
#pdf 21 2 3.216099e-01 4.539357e-01 5000.0 2.764251e-02 5.241334e-03
</event>
<event>
4 7 1.0 5000.0 7.905138e-03 7.739137e-02
21 -1 0 0 103 101  0.000000e+00  0.000000e+00  4.087111e+03  4.087111e+03 0.0 0.0 9.0
 2 -1 0 0 101   0  0.000000e+00  0.000000e+00 -1.389848e+03  1.389848e+03 0.0 0.0 9.0
22  1 1 2   0   0  1.299151e+03  1.312201e+03  3.080070e+03  3.591169e+03 0.0 0.0 9.0
 2  1 1 2 103   0 -1.299151e+03 -1.312201e+03 -3.828067e+02  1.885791e+03 0.0022 0.0 9.0
#pdf 21 2 6.287863e-01 2.138228e-01 5000.0 3.997701e-04 1.052754e-01
</event>
<event>
4 7 1.0 5000.0 7.905138e-03 7.739137e-02
 2 -1 0 0 101   0  0.000000e+00  0.000000e+00  3.245809e+03  3.245809e+03 0.0 0.0 9.0
21 -1 0 0 103 101  0.000000e+00  0.000000e+00 -1.925806e+03  1.925806e+03 0.0 0.0 9.0
 2  1 1 2 103   0 -1.234743e+03 -1.581482e+02  2.902503e+03  3.158183e+03 0.0022 0.0 9.0
22  1 1 2   0   0  1.234743e+03  1.581482e+02 -1.582500e+03  2.013432e+03 0.0 0.0 9.0
#pdf 2 21 4.993552e-01 2.962779e-01 5000.0 7.081337e-02 2.537723e-01
</event>
<event>
4 7 1.0 5000.0 7.905138e-03 7.739137e-02
21 -1 0 0 103 101  0.000000e+00  0.000000e+00  3.322284e+03  3.322284e+03 0.0 0.0 9.0
 2 -1 0 0 101   0  0.000000e+00  0.000000e+00 -1.765452e+03  1.765452e+03 0.0 0.0 9.0
 2  1 1 2 103   0 -2.299039e+02 -2.106847e+03  2.009507e+03  2.920578e+03 0.0022 0.0 9.0
22  1 1 2   0   0  2.299039e+02  2.106847e+03 -4.526750e+02  2.167158e+03 0.0 0.0 9.0
#pdf 21 2 5.111207e-01 2.716080e-01 5000.0 2.415445e-03 5.102654e-02
</event>
<event>
4 7 1.0 5000.0 7.905138e-03 7.739137e-02
 2 -1 0 0 101   0  0.000000e+00  0.000000e+00  3.001088e+03  3.001088e+03 0.0 0.0 9.0
21 -1 0 0 103 101  0.000000e+00  0.000000e+00 -1.884196e+03  1.884196e+03 0.0 0.0 9.0
 2  1 1 2 103   0  1.222543e+03 -2.449178e+02  2.638389e+03  2.918167e+03 0.0022 0.0 9.0
22  1 1 2   0   0 -1.222543e+03  2.449178e+02 -1.521498e+03  1.967118e+03 0.0 0.0 9.0
#pdf 2 21 4.617059e-01 2.898764e-01 5000.0 9.406925e-02 2.617532e-01
</event>
<event>
4 7 1.0 5000.0 7.905138e-03 7.739137e-02
21 -1 0 0 103 101  0.000000e+00  0.000000e+00  3.303429e+03  3.303429e+03 0.0 0.0 9.0
 2 -1 0 0 101   0  0.000000e+00  0.000000e+00 -1.851910e+03  1.851910e+03 0.0 0.0 9.0
 2  1 1 2 103   0  2.282125e+03  6.382004e+02  1.464340e+03  2.785622e+03 0.0022 0.0 9.0
22  1 1 2   0   0 -2.282125e+03 -6.382004e+02 -1.282060e+01  2.369717e+03 0.0 0.0 9.0
#pdf 21 2 5.082199e-01 2.849092e-01 5000.0 2.514901e-03 4.333222e-02
</event>
<event>
4 7 1.0 5000.0 7.905138e-03 7.739137e-02
21 -1 0 0 103 101  0.000000e+00  0.000000e+00  3.743895e+03  3.743895e+03 0.0 0.0 9.0
 2 -1 0 0 101   0  0.000000e+00  0.000000e+00 -1.442851e+03  1.442851e+03 0.0 0.0 9.0
22  1 1 2   0   0 -2.144069e+03  3.136733e+02  2.126662e+02  2.177303e+03 0.0 0.0 9.0
 2  1 1 2 103   0  2.144069e+03 -3.136733e+02  2.088377e+03  3.009442e+03 0.0022 0.0 9.0
#pdf 21 2 5.759838e-01 2.219771e-01 5000.0 9.347903e-04 9.484375e-02
</event>
<event>
4 7 1.0 5000.0 7.905138e-03 7.739137e-02
 2 -1 0 0 101   0  0.000000e+00  0.000000e+00  1.889357e+03  1.889357e+03 0.0 0.0 9.0
21 -1 0 0 103 101  0.000000e+00  0.000000e+00 -3.869669e+03  3.869669e+03 0.0 0.0 9.0
22  1 1 2   0   0  8.122670e+02  2.564275e+03 -6.967563e+02  2.778624e+03 0.0 0.0 9.0
 2  1 1 2 103   0 -8.122670e+02 -2.564275e+03 -1.283555e+03  2.980402e+03 0.0022 0.0 9.0
#pdf 2 21 2.906704e-01 5.953336e-01 5000.0 2.607562e-01 3.024467e-02
</event>
<event>
4 7 1.0 5000.0 7.905138e-03 7.739137e-02
21 -1 0 0 103 101  0.000000e+00  0.000000e+00  2.619259e+03  2.619259e+03 0.0 0.0 9.0
 2 -1 0 0 101   0  0.000000e+00  0.000000e+00 -2.252439e+03  2.252439e+03 0.0 0.0 9.0
 2  1 1 2 103   0  2.069194e+03  3.104355e+02 -1.053709e+03  2.342699e+03 0.0022 0.0 9.0
22  1 1 2   0   0 -2.069194e+03 -3.104355e+02  1.420529e+03  2.528999e+03 0.0 0.0 9.0
#pdf 21 2 4.029629e-01 3.465291e-01 5000.0 1.009592e-02 2.036965e-02
</event>
<event>
4 7 1.0 5000.0 7.905138e-03 7.739137e-02
 2 -1 0 0 101   0  0.000000e+00  0.000000e+00  2.017253e+03  2.017253e+03 0.0 0.0 9.0
21 -1 0 0 103 101  0.000000e+00  0.000000e+00 -3.093680e+03  3.093680e+03 0.0 0.0 9.0
22  1 1 2   0   0  4.047127e+02  2.297859e+03  3.748968e+02  2.363154e+03 0.0 0.0 9.0
 2  1 1 2 103   0 -4.047127e+02 -2.297859e+03 -1.451324e+03  2.747779e+03 0.0022 0.0 9.0
#pdf 2 21 3.103467e-01 4.759508e-01 5000.0 2.366493e-01 8.473230e-02
</event>
<event>
4 7 1.0 5000.0 7.905138e-03 7.739137e-02
21 -1 0 0 103 101  0.000000e+00  0.000000e+00  3.020100e+03  3.020100e+03 0.0 0.0 9.0
 2 -1 0 0 101   0  0.000000e+00  0.000000e+00 -2.040919e+03  2.040919e+03 0.0 0.0 9.0
22  1 1 2   0   0 -8.009610e+02  2.761915e+02  2.868192e+03  2.990710e+03 0.0 0.0 9.0
 2  1 1 2 103   0  8.009610e+02 -2.761915e+02 -1.889010e+03  2.070309e+03 0.0022 0.0 9.0
#pdf 21 2 4.646308e-01 3.139875e-01 5000.0 4.547638e-03 3.035953e-02
</event>
<event>
4 7 1.0 5000.0 7.905138e-03 7.739137e-02
 2 -1 0 0 101   0  0.000000e+00  0.000000e+00  4.133652e+03  4.133652e+03 0.0 0.0 9.0
21 -1 0 0 103 101  0.000000e+00  0.000000e+00 -1.513647e+03  1.513647e+03 0.0 0.0 9.0
22  1 1 2   0   0  1.941290e+03  1.286407e+02  3.084733e+03  3.647017e+03 0.0 0.0 9.0
 2  1 1 2 103   0 -1.941290e+03 -1.286407e+02 -4.647275e+02  2.000282e+03 0.0022 0.0 9.0
#pdf 2 21 6.359465e-01 2.328687e-01 5000.0 1.970654e-02 3.367962e-01
</event>
<event>
4 7 1.0 5000.0 7.905138e-03 7.739137e-02
 2 -1 0 0 101   0  0.000000e+00  0.000000e+00  1.236620e+03  1.236620e+03 0.0 0.0 9.0
21 -1 0 0 103 101  0.000000e+00  0.000000e+00 -3.936630e+03  3.936630e+03 0.0 0.0 9.0
 2  1 1 2 103   0 -2.034753e+03  7.838160e+02 -9.550009e+02  2.380465e+03 0.0022 0.0 9.0
22  1 1 2   0   0  2.034753e+03 -7.838160e+02 -1.745009e+03  2.792784e+03 0.0 0.0 9.0
#pdf 2 21 1.902492e-01 6.056353e-01 5000.0 3.954697e-01 2.725652e-02
</event>
<event>
4 7 1.0 5000.0 7.905138e-03 7.739137e-02
 2 -1 0 0 101   0  0.000000e+00  0.000000e+00  2.151717e+03  2.151717e+03 0.0 0.0 9.0
21 -1 0 0 103 101  0.000000e+00  0.000000e+00 -2.824888e+03  2.824888e+03 0.0 0.0 9.0
22  1 1 2   0   0 -3.200360e+02  2.189716e+03 -1.433442e+03  2.636671e+03 0.0 0.0 9.0
 2  1 1 2 103   0  3.200360e+02 -2.189716e+03  7.602718e+02  2.339934e+03 0.0022 0.0 9.0
#pdf 2 21 3.310334e-01 4.345981e-01 5000.0 2.125515e-01 1.137535e-01
</event>
<event>
4 7 1.0 5000.0 7.905138e-03 7.739137e-02
 2 -1 0 0 101   0  0.000000e+00  0.000000e+00  1.805562e+03  1.805562e+03 0.0 0.0 9.0
21 -1 0 0 103 101  0.000000e+00  0.000000e+00 -3.547685e+03  3.547685e+03 0.0 0.0 9.0
 2  1 1 2 103   0 -2.220249e+03 -1.104747e+03 -3.363982e+02  2.502626e+03 0.0022 0.0 9.0
22  1 1 2   0   0  2.220249e+03  1.104747e+03 -1.405725e+03  2.850620e+03 0.0 0.0 9.0
#pdf 2 21 2.777787e-01 5.457976e-01 5000.0 2.771191e-01 4.810878e-02
</event>
<event>
4 7 1.0 5000.0 7.905138e-03 7.739137e-02
 2 -1 0 0 101   0  0.000000e+00  0.000000e+00  2.146212e+03  2.146212e+03 0.0 0.0 9.0
21 -1 0 0 103 101  0.000000e+00  0.000000e+00 -2.845973e+03  2.845973e+03 0.0 0.0 9.0
22  1 1 2   0   0  2.271363e+03 -3.399998e+02 -1.271874e+03  2.625329e+03 0.0 0.0 9.0
 2  1 1 2 103   0 -2.271363e+03  3.399998e+02  5.721132e+02  2.366855e+03 0.0022 0.0 9.0
#pdf 2 21 3.301864e-01 4.378420e-01 5000.0 2.135123e-01 1.112704e-01
</event>
<event>
4 7 1.0 5000.0 7.905138e-03 7.739137e-02
 2 -1 0 0 101   0  0.000000e+00  0.000000e+00  3.763337e+03  3.763337e+03 0.0 0.0 9.0
21 -1 0 0 103 101  0.000000e+00  0.000000e+00 -1.590181e+03  1.590181e+03 0.0 0.0 9.0
22  1 1 2   0   0 -1.972000e+03 -1.315796e+03  1.747001e+03  2.944845e+03 0.0 0.0 9.0
 2  1 1 2 103   0  1.972000e+03  1.315796e+03  4.261555e+02  2.408674e+03 0.0022 0.0 9.0
#pdf 2 21 5.789750e-01 2.446433e-01 5000.0 3.548209e-02 3.208260e-01
</event>
<event>
4 7 1.0 5000.0 7.905138e-03 7.739137e-02
21 -1 0 0 103 101  0.000000e+00  0.000000e+00  1.529993e+03  1.529993e+03 0.0 0.0 9.0
 2 -1 0 0 101   0  0.000000e+00  0.000000e+00 -4.119298e+03  4.119298e+03 0.0 0.0 9.0
 2  1 1 2 103   0  3.290191e+02 -2.467167e+03 -9.260416e+02  2.655695e+03 0.0022 0.0 9.0
22  1 1 2   0   0 -3.290191e+02  2.467167e+03 -1.663263e+03  2.993595e+03 0.0 0.0 9.0
#pdf 21 2 2.353835e-01 6.337381e-01 5000.0 8.008919e-02 3.674727e-04
</event>
<event>
4 7 1.0 5000.0 7.905138e-03 7.739137e-02
 2 -1 0 0 101   0  0.000000e+00  0.000000e+00  1.670101e+03  1.670101e+03 0.0 0.0 9.0
21 -1 0 0 103 101  0.000000e+00  0.000000e+00 -3.771031e+03  3.771031e+03 0.0 0.0 9.0
 2  1 1 2 103   0 -1.206675e+03 -2.147659e+03 -1.569805e+03  2.921094e+03 0.0022 0.0 9.0
22  1 1 2   0   0  1.206675e+03  2.147659e+03 -5.311245e+02  2.520039e+03 0.0 0.0 9.0
#pdf 2 21 2.569387e-01 5.801586e-01 5000.0 3.043476e-01 3.508227e-02
</event>
<event>
4 7 1.0 5000.0 7.905138e-03 7.739137e-02
 2 -1 0 0 101   0  0.000000e+00  0.000000e+00  3.163774e+03  3.163774e+03 0.0 0.0 9.0
21 -1 0 0 103 101  0.000000e+00  0.000000e+00 -1.965431e+03  1.965431e+03 0.0 0.0 9.0
 2  1 1 2 103   0  7.176835e+02 -1.631111e+03  2.393120e+03  2.983725e+03 0.0022 0.0 9.0
22  1 1 2   0   0 -7.176835e+02  1.631111e+03 -1.194777e+03  2.145480e+03 0.0 0.0 9.0
#pdf 2 21 4.867345e-01 3.023740e-01 5000.0 7.810195e-02 2.462913e-01
</event>
<event>
4 7 1.0 5000.0 7.905138e-03 7.739137e-02
21 -1 0 0 103 101  0.000000e+00  0.000000e+00  3.187462e+03  3.187462e+03 0.0 0.0 9.0
 2 -1 0 0 101   0  0.000000e+00  0.000000e+00 -1.951881e+03  1.951881e+03 0.0 0.0 9.0
22  1 1 2   0   0  1.002270e+02 -1.646832e+03 -1.309415e+03  2.106340e+03 0.0 0.0 9.0
 2  1 1 2 103   0 -1.002270e+02  1.646832e+03  2.544996e+03  3.033003e+03 0.0022 0.0 9.0
#pdf 21 2 4.903788e-01 3.002894e-01 5000.0 3.215835e-03 3.588224e-02
</event>
<event>
4 7 1.0 5000.0 7.905138e-03 7.739137e-02
 2 -1 0 0 101   0  0.000000e+00  0.000000e+00  1.873017e+03  1.873017e+03 0.0 0.0 9.0
21 -1 0 0 103 101  0.000000e+00  0.000000e+00 -3.115186e+03  3.115186e+03 0.0 0.0 9.0
 2  1 1 2 103   0 -3.092189e+02  2.369865e+03 -9.830836e+02  2.584247e+03 0.0022 0.0 9.0
22  1 1 2   0   0  3.092189e+02 -2.369865e+03 -2.590854e+02  2.403956e+03 0.0 0.0 9.0
#pdf 2 21 2.881564e-01 4.792594e-01 5000.0 2.639189e-01 8.265684e-02
</event>
<event>
4 7 1.0 5000.0 7.905138e-03 7.739137e-02
 2 -1 0 0 101   0  0.000000e+00  0.000000e+00  2.267256e+03  2.267256e+03 0.0 0.0 9.0
21 -1 0 0 103 101  0.000000e+00  0.000000e+00 -2.747292e+03  2.747292e+03 0.0 0.0 9.0
 2  1 1 2 103   0 -1.035072e+03  2.007091e+03  8.274421e+02  2.405088e+03 0.0022 0.0 9.0
22  1 1 2   0   0  1.035072e+03 -2.007091e+03 -1.307478e+03  2.609461e+03 0.0 0.0 9.0
#pdf 2 21 3.488087e-01 4.226603e-01 5000.0 1.929452e-01 1.232099e-01
</event>
<event>
4 7 1.0 5000.0 7.905138e-03 7.739137e-02
 2 -1 0 0 101   0  0.000000e+00  0.000000e+00  2.105539e+03  2.105539e+03 0.0 0.0 9.0
21 -1 0 0 103 101  0.000000e+00  0.000000e+00 -3.009734e+03  3.009734e+03 0.0 0.0 9.0
22  1 1 2   0   0  3.631897e+02 -1.883212e+03 -2.108742e+03  2.850471e+03 0.0 0.0 9.0
 2  1 1 2 103   0 -3.631897e+02  1.883212e+03  1.204547e+03  2.264802e+03 0.0022 0.0 9.0
#pdf 2 21 3.239291e-01 4.630360e-01 5000.0 2.206841e-01 9.316991e-02
</event>
<event>
4 7 1.0 5000.0 7.905138e-03 7.739137e-02
21 -1 0 0 103 101  0.000000e+00  0.000000e+00  1.750458e+03  1.750458e+03 0.0 0.0 9.0
 2 -1 0 0 101   0  0.000000e+00  0.000000e+00 -3.598123e+03  3.598123e+03 0.0 0.0 9.0
 2  1 1 2 103   0 -1.839608e+03 -1.690912e+03 -6.738774e+02  2.587944e+03 0.0022 0.0 9.0
22  1 1 2   0   0  1.839608e+03  1.690912e+03 -1.173788e+03  2.760638e+03 0.0 0.0 9.0
#pdf 21 2 2.693012e-01 5.535574e-01 5000.0 5.249495e-02 1.311216e-03
</event>
<event>
4 7 1.0 5000.0 7.905138e-03 7.739137e-02
 2 -1 0 0 101   0  0.000000e+00  0.000000e+00  2.928520e+03  2.928520e+03 0.0 0.0 9.0
21 -1 0 0 103 101  0.000000e+00  0.000000e+00 -2.160922e+03  2.160922e+03 0.0 0.0 9.0
22  1 1 2   0   0 -2.482421e+03 -4.047795e+02  4.295095e+02  2.551615e+03 0.0 0.0 9.0
 2  1 1 2 103   0  2.482421e+03  4.047795e+02  3.380880e+02  2.537827e+03 0.0022 0.0 9.0
#pdf 2 21 4.505415e-01 3.324495e-01 5000.0 1.018736e-01 2.109507e-01
</event>
<event>
4 7 1.0 5000.0 7.905138e-03 7.739137e-02
 2 -1 0 0 101   0  0.000000e+00  0.000000e+00  2.190634e+03  2.190634e+03 0.0 0.0 9.0
21 -1 0 0 103 101  0.000000e+00  0.000000e+00 -2.862457e+03  2.862457e+03 0.0 0.0 9.0
 2  1 1 2 103   0 -1.047336e+03 -8.987808e+02  1.772272e+03  2.246256e+03 0.0022 0.0 9.0
22  1 1 2   0   0  1.047336e+03  8.987808e+02 -2.444095e+03  2.806834e+03 0.0 0.0 9.0
#pdf 2 21 3.370206e-01 4.403779e-01 5000.0 2.058331e-01 1.093507e-01
</event>
<event>
4 7 1.0 5000.0 7.905138e-03 7.739137e-02
 2 -1 0 0 101   0  0.000000e+00  0.000000e+00  2.648967e+03  2.648967e+03 0.0 0.0 9.0
21 -1 0 0 103 101  0.000000e+00  0.000000e+00 -2.402353e+03  2.402353e+03 0.0 0.0 9.0
22  1 1 2   0   0  3.762530e+02 -9.961965e+02  2.412909e+03  2.637443e+03 0.0 0.0 9.0
 2  1 1 2 103   0 -3.762530e+02  9.961965e+02 -2.166295e+03  2.413878e+03 0.0022 0.0 9.0
#pdf 2 21 4.075334e-01 3.695928e-01 5000.0 1.359347e-01 1.713745e-01
</event>
<event>
4 7 1.0 5000.0 7.905138e-03 7.739137e-02
21 -1 0 0 103 101  0.000000e+00  0.000000e+00  1.964540e+03  1.964540e+03 0.0 0.0 9.0
 2 -1 0 0 101   0  0.000000e+00  0.000000e+00 -2.237018e+03  2.237018e+03 0.0 0.0 9.0
 2  1 1 2 103   0 -1.600428e+02  1.543386e+03 -1.548843e+03  2.192389e+03 0.0022 0.0 9.0
22  1 1 2   0   0  1.600428e+02 -1.543386e+03  1.276365e+03  2.009169e+03 0.0 0.0 9.0
#pdf 21 2 3.022370e-01 3.441566e-01 5000.0 3.505942e-02 2.096942e-02
</event>
<event>
4 7 1.0 5000.0 7.905138e-03 7.739137e-02
 2 -1 0 0 101   0  0.000000e+00  0.000000e+00  3.197931e+03  3.197931e+03 0.0 0.0 9.0
21 -1 0 0 103 101  0.000000e+00  0.000000e+00 -1.981532e+03  1.981532e+03 0.0 0.0 9.0
 2  1 1 2 103   0  1.483452e+03 -3.713589e+02 -1.448900e+03  2.106621e+03 0.0022 0.0 9.0
22  1 1 2   0   0 -1.483452e+03  3.713589e+02  2.665299e+03  3.072842e+03 0.0 0.0 9.0
#pdf 2 21 4.919893e-01 3.048510e-01 5000.0 7.500616e-02 2.432725e-01
</event>
<event>
4 7 1.0 5000.0 7.905138e-03 7.739137e-02
21 -1 0 0 103 101  0.000000e+00  0.000000e+00  3.281108e+03  3.281108e+03 0.0 0.0 9.0
 2 -1 0 0 101   0  0.000000e+00  0.000000e+00 -1.828928e+03  1.828928e+03 0.0 0.0 9.0
22  1 1 2   0   0 -9.051889e+02 -1.076336e+03 -1.365915e+03  1.960508e+03 0.0 0.0 9.0
 2  1 1 2 103   0  9.051889e+02  1.076336e+03  2.818095e+03  3.149528e+03 0.0022 0.0 9.0
#pdf 21 2 5.047858e-01 2.813735e-01 5000.0 2.637552e-03 4.525190e-02
</event>
<event>
4 7 1.0 5000.0 7.905138e-03 7.739137e-02
 2 -1 0 0 101   0  0.000000e+00  0.000000e+00  3.400807e+03  3.400807e+03 0.0 0.0 9.0
21 -1 0 0 103 101  0.000000e+00  0.000000e+00 -2.217673e+03  2.217673e+03 0.0 0.0 9.0
 2  1 1 2 103   0 -4.876375e+02 -2.419072e+03 -6.411390e+02  2.549658e+03 0.0022 0.0 9.0
22  1 1 2   0   0  4.876375e+02  2.419072e+03  1.824273e+03  3.068822e+03 0.0 0.0 9.0
#pdf 2 21 5.232011e-01 3.411805e-01 5000.0 5.837845e-02 2.012344e-01
</event>
<event>
4 7 1.0 5000.0 7.905138e-03 7.739137e-02
21 -1 0 0 103 101  0.000000e+00  0.000000e+00  4.163637e+03  4.163637e+03 0.0 0.0 9.0
 2 -1 0 0 101   0  0.000000e+00  0.000000e+00 -1.326906e+03  1.326906e+03 0.0 0.0 9.0
22  1 1 2   0   0 -4.840220e+02 -1.516514e+03 -6.014541e+02  1.701717e+03 0.0 0.0 9.0
 2  1 1 2 103   0  4.840220e+02  1.516514e+03  3.438185e+03  3.788827e+03 0.0022 0.0 9.0
#pdf 21 2 6.405596e-01 2.041395e-01 5000.0 3.268699e-04 1.191686e-01
</event>
<event>
4 7 1.0 5000.0 7.905138e-03 7.739137e-02
21 -1 0 0 103 101  0.000000e+00  0.000000e+00  3.683026e+03  3.683026e+03 0.0 0.0 9.0
 2 -1 0 0 101   0  0.000000e+00  0.000000e+00 -1.692993e+03  1.692993e+03 0.0 0.0 9.0
 2  1 1 2 103   0 -1.612685e+02 -1.816331e+03 -8.413843e+02  2.008232e+03 0.0022 0.0 9.0
22  1 1 2   0   0  1.612685e+02  1.816331e+03  2.831418e+03  3.367788e+03 0.0 0.0 9.0
#pdf 21 2 5.666194e-01 2.604604e-01 5000.0 1.079496e-03 5.856945e-02
</event>
<event>
4 7 1.0 5000.0 7.905138e-03 7.739137e-02
 2 -1 0 0 101   0  0.000000e+00  0.000000e+00  3.530784e+03  3.530784e+03 0.0 0.0 9.0
21 -1 0 0 103 101  0.000000e+00  0.000000e+00 -1.800404e+03  1.800404e+03 0.0 0.0 9.0
 2  1 1 2 103   0  2.467012e+03  1.353925e+02  3.340808e+02  2.493209e+03 0.0022 0.0 9.0
22  1 1 2   0   0 -2.467012e+03 -1.353925e+02  1.396299e+03  2.837980e+03 0.0 0.0 9.0
#pdf 2 21 5.431975e-01 2.769853e-01 5000.0 4.921705e-02 2.781391e-01
</event>
<event>
4 7 1.0 5000.0 7.905138e-03 7.739137e-02
 2 -1 0 0 101   0  0.000000e+00  0.000000e+00  2.433845e+03  2.433845e+03 0.0 0.0 9.0
21 -1 0 0 103 101  0.000000e+00  0.000000e+00 -2.737357e+03  2.737357e+03 0.0 0.0 9.0
22  1 1 2   0   0 -1.423259e+03  1.675138e+03 -1.507072e+03  2.665148e+03 0.0 0.0 9.0
 2  1 1 2 103   0  1.423259e+03 -1.675138e+03  1.203560e+03  2.506054e+03 0.0022 0.0 9.0
#pdf 2 21 3.744377e-01 4.211319e-01 5000.0 1.665735e-01 1.244591e-01
</event>
<event>
4 7 1.0 5000.0 7.905138e-03 7.739137e-02
21 -1 0 0 103 101  0.000000e+00  0.000000e+00  1.510481e+03  1.510481e+03 0.0 0.0 9.0
 2 -1 0 0 101   0  0.000000e+00  0.000000e+00 -3.981875e+03  3.981875e+03 0.0 0.0 9.0
22  1 1 2   0   0  1.511895e+03 -1.916177e+03 -1.503008e+03  2.866460e+03 0.0 0.0 9.0
 2  1 1 2 103   0 -1.511895e+03  1.916177e+03 -9.683857e+02  2.625896e+03 0.0022 0.0 9.0
#pdf 21 2 2.323818e-01 6.125962e-01 5000.0 8.313043e-02 5.234620e-04
</event>
<event>
4 7 1.0 5000.0 7.905138e-03 7.739137e-02
 2 -1 0 0 101   0  0.000000e+00  0.000000e+00  3.391833e+03  3.391833e+03 0.0 0.0 9.0
21 -1 0 0 103 101  0.000000e+00  0.000000e+00 -2.000152e+03  2.000152e+03 0.0 0.0 9.0
22  1 1 2   0   0 -8.665577e+02  1.852003e+03  2.365914e+03  3.127041e+03 0.0 0.0 9.0
 2  1 1 2 103   0  8.665577e+02 -1.852003e+03 -9.742333e+02  2.264943e+03 0.0022 0.0 9.0
#pdf 2 21 5.218204e-01 3.077157e-01 5000.0 5.905147e-02 2.398075e-01
</event>
<event>
4 7 1.0 5000.0 7.905138e-03 7.739137e-02
 2 -1 0 0 101   0  0.000000e+00  0.000000e+00  2.268357e+03  2.268357e+03 0.0 0.0 9.0
21 -1 0 0 103 101  0.000000e+00  0.000000e+00 -2.647681e+03  2.647681e+03 0.0 0.0 9.0
22  1 1 2   0   0 -2.449140e+03 -4.748990e+01 -2.629840e+02  2.463676e+03 0.0 0.0 9.0
 2  1 1 2 103   0  2.449140e+03  4.748990e+01 -1.163403e+02  2.452361e+03 0.0022 0.0 9.0
#pdf 2 21 3.489780e-01 4.073355e-01 5000.0 1.927635e-01 1.361065e-01
</event>
<event>
4 7 1.0 5000.0 7.905138e-03 7.739137e-02
21 -1 0 0 103 101  0.000000e+00  0.000000e+00  2.394237e+03  2.394237e+03 0.0 0.0 9.0
 2 -1 0 0 101   0  0.000000e+00  0.000000e+00 -2.680517e+03  2.680517e+03 0.0 0.0 9.0
22  1 1 2   0   0 -1.584777e+03 -1.676836e+03  9.047098e+02  2.478265e+03 0.0 0.0 9.0
 2  1 1 2 103   0  1.584777e+03  1.676836e+03 -1.190990e+03  2.596489e+03 0.0022 0.0 9.0
#pdf 21 2 3.683441e-01 4.123873e-01 5000.0 1.555458e-02 8.957451e-03
</event>
<event>
4 7 1.0 5000.0 7.905138e-03 7.739137e-02
21 -1 0 0 103 101  0.000000e+00  0.000000e+00  4.043968e+03  4.043968e+03 0.0 0.0 9.0
 2 -1 0 0 101   0  0.000000e+00  0.000000e+00 -1.547765e+03  1.547765e+03 0.0 0.0 9.0
22  1 1 2   0   0 -3.066726e+02  2.337606e+03  3.126635e+02  2.378278e+03 0.0 0.0 9.0
 2  1 1 2 103   0  3.066726e+02 -2.337606e+03  2.183540e+03  3.213455e+03 0.0022 0.0 9.0
#pdf 21 2 6.221490e-01 2.381177e-01 5000.0 4.471566e-04 7.741528e-02
</event>
<event>
4 7 1.0 5000.0 7.905138e-03 7.739137e-02
21 -1 0 0 103 101  0.000000e+00  0.000000e+00  2.103286e+03  2.103286e+03 0.0 0.0 9.0
 2 -1 0 0 101   0  0.000000e+00  0.000000e+00 -3.177681e+03  3.177681e+03 0.0 0.0 9.0
22  1 1 2   0   0  1.389367e+03 -2.131434e+03 -6.890614e+01  2.545211e+03 0.0 0.0 9.0
 2  1 1 2 103   0 -1.389367e+03  2.131434e+03 -1.005489e+03  2.735756e+03 0.0022 0.0 9.0
#pdf 21 2 3.235825e-01 4.888740e-01 5000.0 2.698338e-02 3.282276e-03
</event>
<event>
4 7 1.0 5000.0 7.905138e-03 7.739137e-02
 2 -1 0 0 101   0  0.000000e+00  0.000000e+00  2.121728e+03  2.121728e+03 0.0 0.0 9.0
21 -1 0 0 103 101  0.000000e+00  0.000000e+00 -2.967374e+03  2.967374e+03 0.0 0.0 9.0
22  1 1 2   0   0  1.635098e+03  1.709398e+03 -1.271505e+03  2.685574e+03 0.0 0.0 9.0
 2  1 1 2 103   0 -1.635098e+03 -1.709398e+03  4.258596e+02  2.403527e+03 0.0022 0.0 9.0
#pdf 2 21 3.264196e-01 4.565190e-01 5000.0 2.178146e-01 9.764495e-02
</event>
<event>
4 7 1.0 5000.0 7.905138e-03 7.739137e-02
 2 -1 0 0 101   0  0.000000e+00  0.000000e+00  2.095965e+03  2.095965e+03 0.0 0.0 9.0
21 -1 0 0 103 101  0.000000e+00  0.000000e+00 -2.896149e+03  2.896149e+03 0.0 0.0 9.0
 2  1 1 2 103   0  1.724894e+03 -7.185401e+02  1.226766e+03  2.235288e+03 0.0022 0.0 9.0
22  1 1 2   0   0 -1.724894e+03  7.185401e+02 -2.026949e+03  2.756825e+03 0.0 0.0 9.0
#pdf 2 21 3.224561e-01 4.455613e-01 5000.0 2.223900e-01 1.054791e-01
</event>
<event>
4 7 1.0 5000.0 7.905138e-03 7.739137e-02
21 -1 0 0 103 101  0.000000e+00  0.000000e+00  2.759977e+03  2.759977e+03 0.0 0.0 9.0
 2 -1 0 0 101   0  0.000000e+00  0.000000e+00 -2.233632e+03  2.233632e+03 0.0 0.0 9.0
22  1 1 2   0   0 -1.930446e+03 -2.806210e+02  1.807811e+03  2.659615e+03 0.0 0.0 9.0
 2  1 1 2 103   0  1.930446e+03  2.806210e+02 -1.281467e+03  2.333994e+03 0.0022 0.0 9.0
#pdf 21 2 4.246118e-01 3.436357e-01 5000.0 7.664371e-03 2.110335e-02
</event>
<event>
4 7 1.0 5000.0 7.905138e-03 7.739137e-02
 2 -1 0 0 101   0  0.000000e+00  0.000000e+00  3.929980e+03  3.929980e+03 0.0 0.0 9.0
21 -1 0 0 103 101  0.000000e+00  0.000000e+00 -1.570787e+03  1.570787e+03 0.0 0.0 9.0
22  1 1 2   0   0  1.869108e+03  1.504513e+03  4.655807e+02  2.444154e+03 0.0 0.0 9.0
 2  1 1 2 103   0 -1.869108e+03 -1.504513e+03  1.893612e+03  3.056614e+03 0.0022 0.0 9.0
#pdf 2 21 6.046123e-01 2.416596e-01 5000.0 2.754329e-02 3.248252e-01
</event>
<event>
4 7 1.0 5000.0 7.905138e-03 7.739137e-02
 2 -1 0 0 101   0  0.000000e+00  0.000000e+00  2.381570e+03  2.381570e+03 0.0 0.0 9.0
21 -1 0 0 103 101  0.000000e+00  0.000000e+00 -2.564051e+03  2.564051e+03 0.0 0.0 9.0
 2  1 1 2 103   0 -1.193247e+03  2.081287e+03  5.015077e+02  2.450940e+03 0.0022 0.0 9.0
22  1 1 2   0   0  1.193247e+03 -2.081287e+03 -6.839885e+02  2.494681e+03 0.0 0.0 9.0
#pdf 2 21 3.663954e-01 3.944694e-01 5000.0 1.745987e-01 1.475800e-01
</event>
<event>
4 7 1.0 5000.0 7.905138e-03 7.739137e-02
 2 -1 0 0 101   0  0.000000e+00  0.000000e+00  5.283091e+03  5.283091e+03 0.0 0.0 9.0
21 -1 0 0 103 101  0.000000e+00  0.000000e+00 -1.413573e+03  1.413573e+03 0.0 0.0 9.0
22  1 1 2   0   0 -2.073989e+03  6.031445e+02  3.986031e+03  4.533614e+03 0.0 0.0 9.0
 2  1 1 2 103   0  2.073989e+03 -6.031445e+02 -1.165123e+02  2.163051e+03 0.0022 0.0 9.0
#pdf 2 21 8.127833e-01 2.174728e-01 5000.0 1.295807e-03 3.578802e-01
</event>
<event>
4 7 1.0 5000.0 7.905138e-03 7.739137e-02
 2 -1 0 0 101   0  0.000000e+00  0.000000e+00  3.947828e+03  3.947828e+03 0.0 0.0 9.0
21 -1 0 0 103 101  0.000000e+00  0.000000e+00 -1.574845e+03  1.574845e+03 0.0 0.0 9.0
22  1 1 2   0   0 -2.460466e+03 -1.040265e+02  1.618962e+03  2.947160e+03 0.0 0.0 9.0
 2  1 1 2 103   0  2.460466e+03  1.040265e+02  7.540208e+02  2.575512e+03 0.0022 0.0 9.0
#pdf 2 21 6.073581e-01 2.422838e-01 5000.0 2.677836e-02 3.239850e-01
</event>
<event>
4 7 1.0 5000.0 7.905138e-03 7.739137e-02
21 -1 0 0 103 101  0.000000e+00  0.000000e+00  1.573448e+03  1.573448e+03 0.0 0.0 9.0
 2 -1 0 0 101   0  0.000000e+00  0.000000e+00 -3.988595e+03  3.988595e+03 0.0 0.0 9.0
22  1 1 2   0   0 -1.908691e+02  1.059025e+03  1.303811e+03  1.690529e+03 0.0 0.0 9.0
 2  1 1 2 103   0  1.908691e+02 -1.059025e+03 -3.718959e+03  3.871514e+03 0.0022 0.0 9.0
#pdf 21 2 2.420688e-01 6.136301e-01 5000.0 7.367247e-02 5.146659e-04
</event>
<event>
4 7 1.0 5000.0 7.905138e-03 7.739137e-02
 2 -1 0 0 101   0  0.000000e+00  0.000000e+00  2.345474e+03  2.345474e+03 0.0 0.0 9.0
21 -1 0 0 103 101  0.000000e+00  0.000000e+00 -2.713709e+03  2.713709e+03 0.0 0.0 9.0
 2  1 1 2 103   0  2.219441e+02 -1.772044e+03 -1.970860e+03  2.659641e+03 0.0022 0.0 9.0
22  1 1 2   0   0 -2.219441e+02  1.772044e+03  1.602625e+03  2.399543e+03 0.0 0.0 9.0
#pdf 2 21 3.608422e-01 4.174937e-01 5000.0 1.802783e-01 1.274665e-01
</event>
<event>
4 7 1.0 5000.0 7.905138e-03 7.739137e-02
21 -1 0 0 103 101  0.000000e+00  0.000000e+00  1.697700e+03  1.697700e+03 0.0 0.0 9.0
 2 -1 0 0 101   0  0.000000e+00  0.000000e+00 -2.811455e+03  2.811455e+03 0.0 0.0 9.0
 2  1 1 2 103   0  3.061774e+02  9.778915e+02  1.434323e+03  1.762753e+03 0.0022 0.0 9.0
22  1 1 2   0   0 -3.061774e+02 -9.778915e+02 -2.548079e+03  2.746402e+03 0.0 0.0 9.0
#pdf 21 2 2.611845e-01 4.325316e-01 5000.0 5.804168e-02 6.923394e-03
</event>
<event>
4 7 1.0 5000.0 7.905138e-03 7.739137e-02
 2 -1 0 0 101   0  0.000000e+00  0.000000e+00  2.160239e+03  2.160239e+03 0.0 0.0 9.0
21 -1 0 0 103 101  0.000000e+00  0.000000e+00 -2.995544e+03  2.995544e+03 0.0 0.0 9.0
22  1 1 2   0   0 -1.519442e+03 -1.037772e+03  1.362399e+03  2.289499e+03 0.0 0.0 9.0
 2  1 1 2 103   0  1.519442e+03  1.037772e+03 -2.197705e+03  2.866284e+03 0.0022 0.0 9.0
#pdf 2 21 3.323444e-01 4.608530e-01 5000.0 2.110693e-01 9.464995e-02
</event>
<event>
4 7 1.0 5000.0 7.905138e-03 7.739137e-02
 2 -1 0 0 101   0  0.000000e+00  0.000000e+00  1.638604e+03  1.638604e+03 0.0 0.0 9.0
21 -1 0 0 103 101  0.000000e+00  0.000000e+00 -3.871619e+03  3.871619e+03 0.0 0.0 9.0
22  1 1 2   0   0  3.814185e+02  9.825583e+02 -3.618796e+03  3.769162e+03 0.0 0.0 9.0
 2  1 1 2 103   0 -3.814185e+02 -9.825583e+02  1.385782e+03  1.741061e+03 0.0022 0.0 9.0
#pdf 2 21 2.520930e-01 5.956336e-01 5000.0 3.107934e-01 3.015438e-02
</event>
<event>
4 7 1.0 5000.0 7.905138e-03 7.739137e-02
 2 -1 0 0 101   0  0.000000e+00  0.000000e+00  2.117906e+03  2.117906e+03 0.0 0.0 9.0
21 -1 0 0 103 101  0.000000e+00  0.000000e+00 -2.553840e+03  2.553840e+03 0.0 0.0 9.0
22  1 1 2   0   0  9.100043e+01 -1.737396e+03 -1.768092e+03  2.480519e+03 0.0 0.0 9.0
 2  1 1 2 103   0 -9.100043e+01  1.737396e+03  1.332159e+03  2.191226e+03 0.0022 0.0 9.0
#pdf 2 21 3.258317e-01 3.928984e-01 5000.0 2.184903e-01 1.490197e-01
</event>
<event>
4 7 1.0 5000.0 7.905138e-03 7.739137e-02
 2 -1 0 0 101   0  0.000000e+00  0.000000e+00  2.148510e+03  2.148510e+03 0.0 0.0 9.0
21 -1 0 0 103 101  0.000000e+00  0.000000e+00 -2.907791e+03  2.907791e+03 0.0 0.0 9.0
 2  1 1 2 103   0  7.906849e+02  2.345587e+03 -7.306946e+02  2.580867e+03 0.0022 0.0 9.0
22  1 1 2   0   0 -7.906849e+02 -2.345587e+03 -2.858627e+01  2.475435e+03 0.0 0.0 9.0
#pdf 2 21 3.305401e-01 4.473525e-01 5000.0 2.131109e-01 1.041671e-01
</event>
<event>
4 7 1.0 5000.0 7.905138e-03 7.739137e-02
21 -1 0 0 103 101  0.000000e+00  0.000000e+00  1.491512e+03  1.491512e+03 0.0 0.0 9.0
 2 -1 0 0 101   0  0.000000e+00  0.000000e+00 -3.731156e+03  3.731156e+03 0.0 0.0 9.0
22  1 1 2   0   0 -1.742108e+03  5.336114e+02  5.388963e+02  1.900024e+03 0.0 0.0 9.0
 2  1 1 2 103   0  1.742108e+03 -5.336114e+02 -2.778540e+03  3.322644e+03 0.0022 0.0 9.0
#pdf 21 2 2.294634e-01 5.740240e-01 5000.0 8.621923e-02 9.633705e-04
</event>
<event>
4 7 1.0 5000.0 7.905138e-03 7.739137e-02
21 -1 0 0 103 101  0.000000e+00  0.000000e+00  2.713715e+03  2.713715e+03 0.0 0.0 9.0
 2 -1 0 0 101   0  0.000000e+00  0.000000e+00 -2.160377e+03  2.160377e+03 0.0 0.0 9.0
22  1 1 2   0   0 -2.113042e+03  8.363319e+02 -5.643826e+02  2.341564e+03 0.0 0.0 9.0
 2  1 1 2 103   0  2.113042e+03 -8.363319e+02  1.117721e+03  2.532528e+03 0.0022 0.0 9.0
#pdf 21 2 4.174947e-01 3.323657e-01 5000.0 8.394003e-03 2.423337e-02
</event>
<event>
4 7 1.0 5000.0 7.905138e-03 7.739137e-02
 2 -1 0 0 101   0  0.000000e+00  0.000000e+00  4.868669e+03  4.868669e+03 0.0 0.0 9.0
21 -1 0 0 103 101  0.000000e+00  0.000000e+00 -1.273397e+03  1.273397e+03 0.0 0.0 9.0
22  1 1 2   0   0 -2.098956e+03 -1.254837e+03  2.375509e+03  3.409293e+03 0.0 0.0 9.0
 2  1 1 2 103   0  2.098956e+03  1.254837e+03  1.219762e+03  2.732774e+03 0.0022 0.0 9.0
#pdf 2 21 7.490260e-01 1.959073e-01 5000.0 4.311403e-03 3.876955e-01
</event>
<event>
4 7 1.0 5000.0 7.905138e-03 7.739137e-02
21 -1 0 0 103 101  0.000000e+00  0.000000e+00  3.973113e+03  3.973113e+03 0.0 0.0 9.0
 2 -1 0 0 101   0  0.000000e+00  0.000000e+00 -1.698482e+03  1.698482e+03 0.0 0.0 9.0
 2  1 1 2 103   0 -6.174615e+02 -4.478676e+02  3.848105e+03  3.922978e+03 0.0022 0.0 9.0
22  1 1 2   0   0  6.174615e+02  4.478676e+02 -1.573474e+03  1.748617e+03 0.0 0.0 9.0
#pdf 21 2 6.112482e-01 2.613049e-01 5000.0 5.351491e-04 5.795449e-02
</event>
<event>
4 7 1.0 5000.0 7.905138e-03 7.739137e-02
21 -1 0 0 103 101  0.000000e+00  0.000000e+00  2.306080e+03  2.306080e+03 0.0 0.0 9.0
 2 -1 0 0 101   0  0.000000e+00  0.000000e+00 -2.630067e+03  2.630067e+03 0.0 0.0 9.0
22  1 1 2   0   0  1.418886e+03 -1.298169e+03  1.379728e+03  2.366882e+03 0.0 0.0 9.0
 2  1 1 2 103   0 -1.418886e+03  1.298169e+03 -1.703715e+03  2.569266e+03 0.0022 0.0 9.0
#pdf 21 2 3.547816e-01 4.046257e-01 5000.0 1.839437e-02 9.886149e-03
</event>
<event>
4 7 1.0 5000.0 7.905138e-03 7.739137e-02
21 -1 0 0 103 101  0.000000e+00  0.000000e+00  2.718894e+03  2.718894e+03 0.0 0.0 9.0
 2 -1 0 0 101   0  0.000000e+00  0.000000e+00 -2.314023e+03  2.314023e+03 0.0 0.0 9.0
22  1 1 2   0   0 -1.097785e+03 -2.001300e+03  1.245648e+03  2.600379e+03 0.0 0.0 9.0
 2  1 1 2 103   0  1.097785e+03  2.001300e+03 -8.407763e+02  2.432537e+03 0.0022 0.0 9.0
#pdf 21 2 4.182914e-01 3.560035e-01 5000.0 8.309284e-03 1.811715e-02
</event>
<event>
4 7 1.0 5000.0 7.905138e-03 7.739137e-02
21 -1 0 0 103 101  0.000000e+00  0.000000e+00  1.832147e+03  1.832147e+03 0.0 0.0 9.0
 2 -1 0 0 101   0  0.000000e+00  0.000000e+00 -3.508021e+03  3.508021e+03 0.0 0.0 9.0
22  1 1 2   0   0 -1.614601e+03 -1.870784e+03 -1.434132e+03  2.857185e+03 0.0 0.0 9.0
 2  1 1 2 103   0  1.614601e+03  1.870784e+03 -2.417424e+02  2.482984e+03 0.0022 0.0 9.0
#pdf 21 2 2.818687e-01 5.396956e-01 5000.0 4.497617e-02 1.606846e-03
</event>
<event>
4 7 1.0 5000.0 7.905138e-03 7.739137e-02
21 -1 0 0 103 101  0.000000e+00  0.000000e+00  3.092968e+03  3.092968e+03 0.0 0.0 9.0
 2 -1 0 0 101   0  0.000000e+00  0.000000e+00 -2.042996e+03  2.042996e+03 0.0 0.0 9.0
 2  1 1 2 103   0  5.663678e+02  1.249638e+03 -1.626772e+03  2.128087e+03 0.0022 0.0 9.0
22  1 1 2   0   0 -5.663678e+02 -1.249638e+03  2.676744e+03  3.007877e+03 0.0 0.0 9.0
#pdf 21 2 4.758412e-01 3.143071e-01 5000.0 3.916189e-03 3.023960e-02
</event>
<event>
4 7 1.0 5000.0 7.905138e-03 7.739137e-02
21 -1 0 0 103 101  0.000000e+00  0.000000e+00  1.975763e+03  1.975763e+03 0.0 0.0 9.0
 2 -1 0 0 101   0  0.000000e+00  0.000000e+00 -3.162194e+03  3.162194e+03 0.0 0.0 9.0
22  1 1 2   0   0  9.432976e+02  2.031509e+01  1.785709e+03  2.019649e+03 0.0 0.0 9.0
 2  1 1 2 103   0 -9.432976e+02 -2.031509e+01 -2.972140e+03  3.118308e+03 0.0022 0.0 9.0
#pdf 21 2 3.039635e-01 4.864913e-01 5000.0 3.434018e-02 3.390160e-03
</event>
<event>
4 7 1.0 5000.0 7.905138e-03 7.739137e-02
 2 -1 0 0 101   0  0.000000e+00  0.000000e+00  3.312343e+03  3.312343e+03 0.0 0.0 9.0
21 -1 0 0 103 101  0.000000e+00  0.000000e+00 -1.684688e+03  1.684688e+03 0.0 0.0 9.0
 2  1 1 2 103   0 -1.855098e+03 -1.430428e+03  1.135947e+03  2.603437e+03 0.0022 0.0 9.0
22  1 1 2   0   0  1.855098e+03  1.430428e+03  4.917085e+02  2.393593e+03 0.0 0.0 9.0
#pdf 2 21 5.095912e-01 2.591827e-01 5000.0 6.526556e-02 3.013815e-01
</event>
<event>
4 7 1.0 5000.0 7.905138e-03 7.739137e-02
21 -1 0 0 103 101  0.000000e+00  0.000000e+00  2.361891e+03  2.361891e+03 0.0 0.0 9.0
 2 -1 0 0 101   0  0.000000e+00  0.000000e+00 -2.563015e+03  2.563015e+03 0.0 0.0 9.0
22  1 1 2   0   0 -2.304894e+03 -8.561217e+02 -1.058523e+01  2.458779e+03 0.0 0.0 9.0
 2  1 1 2 103   0  2.304894e+03  8.561217e+02 -1.905391e+02  2.466128e+03 0.0022 0.0 9.0
#pdf 21 2 3.633679e-01 3.943101e-01 5000.0 1.655093e-02 1.125652e-02
</event>
<event>
4 7 1.0 5000.0 7.905138e-03 7.739137e-02
 2 -1 0 0 101   0  0.000000e+00  0.000000e+00  2.059301e+03  2.059301e+03 0.0 0.0 9.0
21 -1 0 0 103 101  0.000000e+00  0.000000e+00 -2.965912e+03  2.965912e+03 0.0 0.0 9.0
 2  1 1 2 103   0 -2.663299e+02 -1.084015e+03 -2.695013e+03  2.917038e+03 0.0022 0.0 9.0
22  1 1 2   0   0  2.663299e+02  1.084015e+03  1.788401e+03  2.108174e+03 0.0 0.0 9.0
#pdf 2 21 3.168155e-01 4.562942e-01 5000.0 2.289782e-01 9.780215e-02
</event>
<event>
4 7 1.0 5000.0 7.905138e-03 7.739137e-02
21 -1 0 0 103 101  0.000000e+00  0.000000e+00  1.177967e+03  1.177967e+03 0.0 0.0 9.0
 2 -1 0 0 101   0  0.000000e+00  0.000000e+00 -5.359070e+03  5.359070e+03 0.0 0.0 9.0
 2  1 1 2 103   0  1.680266e+03 -7.639101e+02  1.270540e+02  1.850134e+03 0.0022 0.0 9.0
22  1 1 2   0   0 -1.680266e+03  7.639101e+02 -4.308157e+03  4.686904e+03 0.0 0.0 9.0
#pdf 21 2 1.812258e-01 8.244724e-01 5000.0 1.614356e-01 4.888572e-06
</event>
<event>
4 7 1.0 5000.0 7.905138e-03 7.739137e-02
 2 -1 0 0 101   0  0.000000e+00  0.000000e+00  1.928925e+03  1.928925e+03 0.0 0.0 9.0
21 -1 0 0 103 101  0.000000e+00  0.000000e+00 -3.303496e+03  3.303496e+03 0.0 0.0 9.0
22  1 1 2   0   0  6.447704e+02 -1.614493e+03 -2.584178e+03  3.114529e+03 0.0 0.0 9.0
 2  1 1 2 103   0 -6.447704e+02  1.614493e+03  1.209606e+03  2.117891e+03 0.0022 0.0 9.0
#pdf 2 21 2.967576e-01 5.082302e-01 5000.0 2.531801e-01 6.598493e-02
</event>
<event>
4 7 1.0 5000.0 7.905138e-03 7.739137e-02
 2 -1 0 0 101   0  0.000000e+00  0.000000e+00  1.865243e+03  1.865243e+03 0.0 0.0 9.0
21 -1 0 0 103 101  0.000000e+00  0.000000e+00 -3.445635e+03  3.445635e+03 0.0 0.0 9.0
22  1 1 2   0   0  3.262233e+02 -1.049920e+03  1.602536e+03  1.943419e+03 0.0 0.0 9.0
 2  1 1 2 103   0 -3.262233e+02  1.049920e+03 -3.182928e+03  3.367460e+03 0.0022 0.0 9.0
#pdf 2 21 2.869605e-01 5.300977e-01 5000.0 2.654291e-01 5.509665e-02
</event>
<event>
4 7 1.0 5000.0 7.905138e-03 7.739137e-02
21 -1 0 0 103 101  0.000000e+00  0.000000e+00  3.947276e+03  3.947276e+03 0.0 0.0 9.0
 2 -1 0 0 101   0  0.000000e+00  0.000000e+00 -1.614733e+03  1.614733e+03 0.0 0.0 9.0
 2  1 1 2 103   0 -9.839689e+02  3.515022e+02 -1.365379e+03  1.719305e+03 0.0022 0.0 9.0
22  1 1 2   0   0  9.839689e+02 -3.515022e+02  3.697922e+03  3.842704e+03 0.0 0.0 9.0
#pdf 21 2 6.072732e-01 2.484205e-01 5000.0 5.711005e-04 6.804068e-02
</event>
<event>
4 7 1.0 5000.0 7.905138e-03 7.739137e-02
 2 -1 0 0 101   0  0.000000e+00  0.000000e+00  4.088103e+03  4.088103e+03 0.0 0.0 9.0
21 -1 0 0 103 101  0.000000e+00  0.000000e+00 -1.540383e+03  1.540383e+03 0.0 0.0 9.0
 2  1 1 2 103   0 -3.032192e+02  2.489638e+03  1.367725e+03  2.856731e+03 0.0022 0.0 9.0
22  1 1 2   0   0  3.032192e+02 -2.489638e+03  1.179996e+03  2.771756e+03 0.0 0.0 9.0
#pdf 2 21 6.289390e-01 2.369820e-01 5000.0 2.129322e-02 3.311697e-01
</event>
<event>
4 7 1.0 5000.0 7.905138e-03 7.739137e-02
21 -1 0 0 103 101  0.000000e+00  0.000000e+00  3.980580e+03  3.980580e+03 0.0 0.0 9.0
 2 -1 0 0 101   0  0.000000e+00  0.000000e+00 -1.678211e+03  1.678211e+03 0.0 0.0 9.0
 2  1 1 2 103   0 -7.332706e+02  1.375589e+03  3.408063e+03  3.747642e+03 0.0022 0.0 9.0
22  1 1 2   0   0  7.332706e+02 -1.375589e+03 -1.105694e+03  1.911149e+03 0.0 0.0 9.0
#pdf 21 2 6.123970e-01 2.581863e-01 5000.0 5.251733e-04 6.026236e-02
</event>
<event>
4 7 1.0 5000.0 7.905138e-03 7.739137e-02
21 -1 0 0 103 101  0.000000e+00  0.000000e+00  4.791964e+03  4.791964e+03 0.0 0.0 9.0
 2 -1 0 0 101   0  0.000000e+00  0.000000e+00 -1.216757e+03  1.216757e+03 0.0 0.0 9.0
22  1 1 2   0   0 -8.205071e+02 -6.798073e+02  4.483631e+03  4.608505e+03 0.0 0.0 9.0
 2  1 1 2 103   0  8.205071e+02  6.798073e+02 -9.084248e+02  1.400216e+03 0.0022 0.0 9.0
#pdf 21 2 7.372252e-01 1.871934e-01 5000.0 4.924816e-05 1.490140e-01
</event>
<event>
4 7 1.0 5000.0 7.905138e-03 7.739137e-02
21 -1 0 0 103 101  0.000000e+00  0.000000e+00  4.131476e+03  4.131476e+03 0.0 0.0 9.0
 2 -1 0 0 101   0  0.000000e+00  0.000000e+00 -1.496852e+03  1.496852e+03 0.0 0.0 9.0
 2  1 1 2 103   0 -1.629208e+03  1.855239e+03  1.652964e+03  2.971283e+03 0.0022 0.0 9.0
22  1 1 2   0   0  1.629208e+03 -1.855239e+03  9.816592e+02  2.657045e+03 0.0 0.0 9.0
#pdf 21 2 6.356116e-01 2.302849e-01 5000.0 3.559059e-04 8.533496e-02
</event>
<event>
4 7 1.0 5000.0 7.905138e-03 7.739137e-02
 2 -1 0 0 101   0  0.000000e+00  0.000000e+00  1.923141e+03  1.923141e+03 0.0 0.0 9.0
21 -1 0 0 103 101  0.000000e+00  0.000000e+00 -3.163906e+03  3.163906e+03 0.0 0.0 9.0
22  1 1 2   0   0  7.634571e+02  1.769188e+03  9.676237e+02  2.156198e+03 0.0 0.0 9.0
 2  1 1 2 103   0 -7.634571e+02 -1.769188e+03 -2.208388e+03  2.930848e+03 0.0022 0.0 9.0
#pdf 2 21 2.958679e-01 4.867547e-01 5000.0 2.542791e-01 7.808990e-02
</event>
<event>
4 7 1.0 5000.0 7.905138e-03 7.739137e-02
21 -1 0 0 103 101  0.000000e+00  0.000000e+00  2.604604e+03  2.604604e+03 0.0 0.0 9.0
 2 -1 0 0 101   0  0.000000e+00  0.000000e+00 -2.481118e+03  2.481118e+03 0.0 0.0 9.0
 2  1 1 2 103   0 -2.058825e+03  3.292181e+02  1.516539e+03  2.578185e+03 0.0022 0.0 9.0
22  1 1 2   0   0  2.058825e+03 -3.292181e+02 -1.393053e+03  2.507537e+03 0.0 0.0 9.0
#pdf 21 2 4.007083e-01 3.817104e-01 5000.0 1.038681e-02 1.319086e-02
</event>
<event>
4 7 1.0 5000.0 7.905138e-03 7.739137e-02
21 -1 0 0 103 101  0.000000e+00  0.000000e+00  2.492564e+03  2.492564e+03 0.0 0.0 9.0
 2 -1 0 0 101   0  0.000000e+00  0.000000e+00 -2.545868e+03  2.545868e+03 0.0 0.0 9.0
 2  1 1 2 103   0 -9.710876e+02  1.637611e+02  2.292079e+03  2.494685e+03 0.0022 0.0 9.0
22  1 1 2   0   0  9.710876e+02 -1.637611e+02 -2.345382e+03  2.543747e+03 0.0 0.0 9.0
#pdf 21 2 3.834714e-01 3.916720e-01 5000.0 1.290260e-02 1.163605e-02
</event>
<event>
4 7 1.0 5000.0 7.905138e-03 7.739137e-02
21 -1 0 0 103 101  0.000000e+00  0.000000e+00  3.920650e+03  3.920650e+03 0.0 0.0 9.0
 2 -1 0 0 101   0  0.000000e+00  0.000000e+00 -1.606150e+03  1.606150e+03 0.0 0.0 9.0
22  1 1 2   0   0 -8.217072e+02 -2.279127e+01  3.768179e+03  3.856799e+03 0.0 0.0 9.0
 2  1 1 2 103   0  8.217072e+02  2.279127e+01 -1.453679e+03  1.670001e+03 0.0022 0.0 9.0
#pdf 21 2 6.031769e-01 2.471000e-01 5000.0 6.101330e-04 6.914114e-02
</event>
<event>
4 7 1.0 5000.0 7.905138e-03 7.739137e-02
 2 -1 0 0 101   0  0.000000e+00  0.000000e+00  3.504797e+03  3.504797e+03 0.0 0.0 9.0
21 -1 0 0 103 101  0.000000e+00  0.000000e+00 -2.184770e+03  2.184770e+03 0.0 0.0 9.0
22  1 1 2   0   0 -4.311912e+02 -1.670340e+03  2.884318e+03  3.360841e+03 0.0 0.0 9.0
 2  1 1 2 103   0  4.311912e+02  1.670340e+03 -1.564290e+03  2.328726e+03 0.0022 0.0 9.0
#pdf 2 21 5.391996e-01 3.361184e-01 5000.0 5.095466e-02 2.068372e-01
</event>
<event>
4 7 1.0 5000.0 7.905138e-03 7.739137e-02
21 -1 0 0 103 101  0.000000e+00  0.000000e+00  2.157646e+03  2.157646e+03 0.0 0.0 9.0
 2 -1 0 0 101   0  0.000000e+00  0.000000e+00 -2.805476e+03  2.805476e+03 0.0 0.0 9.0
22  1 1 2   0   0  1.220229e+03  1.861681e+03  7.331785e+02  2.343580e+03 0.0 0.0 9.0
 2  1 1 2 103   0 -1.220229e+03 -1.861681e+03 -1.381009e+03  2.619542e+03 0.0022 0.0 9.0
#pdf 21 2 3.319455e-01 4.316117e-01 5000.0 2.435860e-02 7.005180e-03
</event>
<event>
4 7 1.0 5000.0 7.905138e-03 7.739137e-02
21 -1 0 0 103 101  0.000000e+00  0.000000e+00  1.778501e+03  1.778501e+03 0.0 0.0 9.0
 2 -1 0 0 101   0  0.000000e+00  0.000000e+00 -3.681004e+03  3.681004e+03 0.0 0.0 9.0
22  1 1 2   0   0  4.648151e+01  1.097874e+03 -3.416442e+03  3.588811e+03 0.0 0.0 9.0
 2  1 1 2 103   0 -4.648151e+01 -1.097874e+03  1.513939e+03  1.870694e+03 0.0022 0.0 9.0
#pdf 21 2 2.736155e-01 5.663083e-01 5000.0 4.978328e-02 1.084651e-03
</event>
<event>
4 7 1.0 5000.0 7.905138e-03 7.739137e-02
21 -1 0 0 103 101  0.000000e+00  0.000000e+00  2.008971e+03  2.008971e+03 0.0 0.0 9.0
 2 -1 0 0 101   0  0.000000e+00  0.000000e+00 -3.068097e+03  3.068097e+03 0.0 0.0 9.0
22  1 1 2   0   0  9.361595e+02 -2.236020e+03  1.872599e+01  2.424156e+03 0.0 0.0 9.0
 2  1 1 2 103   0 -9.361595e+02  2.236020e+03 -1.077851e+03  2.652912e+03 0.0022 0.0 9.0
#pdf 21 2 3.090725e-01 4.720149e-01 5000.0 3.226295e-02 4.122402e-03
</event>
<event>
4 7 1.0 5000.0 7.905138e-03 7.739137e-02
 2 -1 0 0 101   0  0.000000e+00  0.000000e+00  4.143298e+03  4.143298e+03 0.0 0.0 9.0
21 -1 0 0 103 101  0.000000e+00  0.000000e+00 -1.517951e+03  1.517951e+03 0.0 0.0 9.0
22  1 1 2   0   0 -1.018074e+03 -2.286338e+03  1.132397e+03  2.747023e+03 0.0 0.0 9.0
 2  1 1 2 103   0  1.018074e+03  2.286338e+03  1.492950e+03  2.914226e+03 0.0022 0.0 9.0
#pdf 2 21 6.374305e-01 2.335310e-01 5000.0 1.938220e-02 3.358886e-01
</event>
<event>
4 7 1.0 5000.0 7.905138e-03 7.739137e-02
 2 -1 0 0 101   0  0.000000e+00  0.000000e+00  2.226994e+03  2.226994e+03 0.0 0.0 9.0
21 -1 0 0 103 101  0.000000e+00  0.000000e+00 -3.212547e+03  3.212547e+03 0.0 0.0 9.0
 2  1 1 2 103   0  2.659849e+03  2.676868e+02 -4.025726e+02  2.703427e+03 0.0022 0.0 9.0
22  1 1 2   0   0 -2.659849e+03 -2.676868e+02 -5.829804e+02  2.736114e+03 0.0 0.0 9.0
#pdf 2 21 3.426144e-01 4.942380e-01 5000.0 1.996617e-01 7.370803e-02
</event>
<event>
4 7 1.0 5000.0 7.905138e-03 7.739137e-02
 2 -1 0 0 101   0  0.000000e+00  0.000000e+00  3.048776e+03  3.048776e+03 0.0 0.0 9.0
21 -1 0 0 103 101  0.000000e+00  0.000000e+00 -2.078153e+03  2.078153e+03 0.0 0.0 9.0
22  1 1 2   0   0  1.913881e+03 -1.480486e+03  1.191658e+03  2.697189e+03 0.0 0.0 9.0
 2  1 1 2 103   0 -1.913881e+03  1.480486e+03 -2.210356e+02  2.429740e+03 0.0022 0.0 9.0
#pdf 2 21 4.690424e-01 3.197159e-01 5000.0 8.918163e-02 2.255799e-01
</event>
<event>
4 7 1.0 5000.0 7.905138e-03 7.739137e-02
 2 -1 0 0 101   0  0.000000e+00  0.000000e+00  4.450330e+03  4.450330e+03 0.0 0.0 9.0
21 -1 0 0 103 101  0.000000e+00  0.000000e+00 -1.391301e+03  1.391301e+03 0.0 0.0 9.0
 2  1 1 2 103   0 -5.367985e+02 -6.748113e+02 -1.210325e+03  1.486072e+03 0.0022 0.0 9.0
22  1 1 2   0   0  5.367985e+02  6.748113e+02  4.269353e+03  4.355559e+03 0.0 0.0 9.0
#pdf 2 21 6.846661e-01 2.140464e-01 5000.0 1.097712e-02 3.625994e-01
</event>
<event>
4 7 1.0 5000.0 7.905138e-03 7.739137e-02
 2 -1 0 0 101   0  0.000000e+00  0.000000e+00  1.307895e+03  1.307895e+03 0.0 0.0 9.0
21 -1 0 0 103 101  0.000000e+00  0.000000e+00 -4.626577e+03  4.626577e+03 0.0 0.0 9.0
 2  1 1 2 103   0  2.242628e+03  3.980414e+02 -5.385976e+02  2.340492e+03 0.0022 0.0 9.0
22  1 1 2   0   0 -2.242628e+03 -3.980414e+02 -2.780085e+03  3.593979e+03 0.0 0.0 9.0
#pdf 2 21 2.012146e-01 7.117811e-01 5000.0 3.803526e-01 7.599063e-03
</event>
<event>
4 7 1.0 5000.0 7.905138e-03 7.739137e-02
 2 -1 0 0 101   0  0.000000e+00  0.000000e+00  4.011549e+03  4.011549e+03 0.0 0.0 9.0
21 -1 0 0 103 101  0.000000e+00  0.000000e+00 -1.200214e+03  1.200214e+03 0.0 0.0 9.0
 2  1 1 2 103   0 -8.854705e+02 -1.232654e+03 -4.762992e+02  1.590709e+03 0.0022 0.0 9.0
22  1 1 2   0   0  8.854705e+02  1.232654e+03  3.287634e+03  3.621054e+03 0.0 0.0 9.0
#pdf 2 21 6.171613e-01 1.846483e-01 5000.0 2.417240e-02 4.030961e-01
</event>
<event>
4 7 1.0 5000.0 7.905138e-03 7.739137e-02
 2 -1 0 0 101   0  0.000000e+00  0.000000e+00  3.111299e+03  3.111299e+03 0.0 0.0 9.0
21 -1 0 0 103 101  0.000000e+00  0.000000e+00 -2.002138e+03  2.002138e+03 0.0 0.0 9.0
22  1 1 2   0   0  1.513547e+03  1.331267e+02 -1.473788e+03  2.116743e+03 0.0 0.0 9.0
 2  1 1 2 103   0 -1.513547e+03 -1.331267e+02  2.582949e+03  2.996694e+03 0.0022 0.0 9.0
#pdf 2 21 4.786613e-01 3.080213e-01 5000.0 8.302923e-02 2.394396e-01
</event>
<event>
4 7 1.0 5000.0 7.905138e-03 7.739137e-02
 2 -1 0 0 101   0  0.000000e+00  0.000000e+00  2.282483e+03  2.282483e+03 0.0 0.0 9.0
21 -1 0 0 103 101  0.000000e+00  0.000000e+00 -3.374357e+03  3.374357e+03 0.0 0.0 9.0
22  1 1 2   0   0 -1.434427e+03 -1.818623e+03  1.012067e+03  2.527697e+03 0.0 0.0 9.0
 2  1 1 2 103   0  1.434427e+03  1.818623e+03 -2.103941e+03  3.129144e+03 0.0022 0.0 9.0
#pdf 2 21 3.511513e-01 5.191319e-01 5000.0 1.904393e-01 6.037850e-02
</event>
<event>
4 7 1.0 5000.0 7.905138e-03 7.739137e-02
21 -1 0 0 103 101  0.000000e+00  0.000000e+00  2.892094e+03  2.892094e+03 0.0 0.0 9.0
 2 -1 0 0 101   0  0.000000e+00  0.000000e+00 -2.271472e+03  2.271472e+03 0.0 0.0 9.0
 2  1 1 2 103   0  3.888231e+02 -1.874324e+03  2.027174e+03  2.788137e+03 0.0022 0.0 9.0
22  1 1 2   0   0 -3.888231e+02  1.874324e+03 -1.406553e+03  2.375429e+03 0.0 0.0 9.0
#pdf 21 2 4.449375e-01 3.494573e-01 5000.0 5.892767e-03 1.965065e-02
</event>
<event>
4 7 1.0 5000.0 7.905138e-03 7.739137e-02
21 -1 0 0 103 101  0.000000e+00  0.000000e+00  2.861013e+03  2.861013e+03 0.0 0.0 9.0
 2 -1 0 0 101   0  0.000000e+00  0.000000e+00 -1.965424e+03  1.965424e+03 0.0 0.0 9.0
22  1 1 2   0   0 -4.784927e+02 -2.319012e+03  5.778503e+02  2.437352e+03 0.0 0.0 9.0
 2  1 1 2 103   0  4.784927e+02  2.319012e+03  3.177384e+02  2.389086e+03 0.0022 0.0 9.0
#pdf 21 2 4.401558e-01 3.023730e-01 5000.0 6.277815e-03 3.500250e-02
</event>
<event>
4 7 1.0 5000.0 7.905138e-03 7.739137e-02
21 -1 0 0 103 101  0.000000e+00  0.000000e+00  2.580628e+03  2.580628e+03 0.0 0.0 9.0
 2 -1 0 0 101   0  0.000000e+00  0.000000e+00 -2.375533e+03  2.375533e+03 0.0 0.0 9.0
22  1 1 2   0   0  4.577138e+02  2.189652e+03 -9.596292e+02  2.434126e+03 0.0 0.0 9.0
 2  1 1 2 103   0 -4.577138e+02 -2.189652e+03  1.164724e+03  2.522035e+03 0.0022 0.0 9.0
#pdf 21 2 3.970196e-01 3.654666e-01 5000.0 1.087982e-02 1.612693e-02
</event>
<event>
4 7 1.0 5000.0 7.905138e-03 7.739137e-02
21 -1 0 0 103 101  0.000000e+00  0.000000e+00  3.656821e+03  3.656821e+03 0.0 0.0 9.0
 2 -1 0 0 101   0  0.000000e+00  0.000000e+00 -1.543808e+03  1.543808e+03 0.0 0.0 9.0
22  1 1 2   0   0  7.741843e+02 -6.505390e+02 -1.296554e+03  1.644267e+03 0.0 0.0 9.0
 2  1 1 2 103   0 -7.741843e+02  6.505390e+02  3.409567e+03  3.556361e+03 0.0022 0.0 9.0
#pdf 21 2 5.625878e-01 2.375089e-01 5000.0 1.147822e-03 7.800378e-02
</event>
<event>
4 7 1.0 5000.0 7.905138e-03 7.739137e-02
 2 -1 0 0 101   0  0.000000e+00  0.000000e+00  2.527279e+03  2.527279e+03 0.0 0.0 9.0
21 -1 0 0 103 101  0.000000e+00  0.000000e+00 -2.493949e+03  2.493949e+03 0.0 0.0 9.0
 2  1 1 2 103   0  1.691491e+03  1.851116e+03 -1.063573e+02  2.509797e+03 0.0022 0.0 9.0
22  1 1 2   0   0 -1.691491e+03 -1.851116e+03  1.396869e+02  2.511431e+03 0.0 0.0 9.0
#pdf 2 21 3.888121e-01 3.836845e-01 5000.0 1.528018e-01 1.576332e-01
</event>
<event>
4 7 1.0 5000.0 7.905138e-03 7.739137e-02
 2 -1 0 0 101   0  0.000000e+00  0.000000e+00  2.346788e+03  2.346788e+03 0.0 0.0 9.0
21 -1 0 0 103 101  0.000000e+00  0.000000e+00 -2.660299e+03  2.660299e+03 0.0 0.0 9.0
 2  1 1 2 103   0  9.383968e+02 -1.235300e+03  1.805820e+03  2.380660e+03 0.0022 0.0 9.0
22  1 1 2   0   0 -9.383968e+02  1.235300e+03 -2.119332e+03  2.626427e+03 0.0 0.0 9.0
#pdf 2 21 3.610443e-01 4.092768e-01 5000.0 1.800698e-01 1.344281e-01
</event>
<event>
4 7 1.0 5000.0 7.905138e-03 7.739137e-02
 2 -1 0 0 101   0  0.000000e+00  0.000000e+00  3.881098e+03  3.881098e+03 0.0 0.0 9.0
21 -1 0 0 103 101  0.000000e+00  0.000000e+00 -1.647442e+03  1.647442e+03 0.0 0.0 9.0
22  1 1 2   0   0  1.209298e+03 -1.267688e+02  3.540523e+03  3.743498e+03 0.0 0.0 9.0
 2  1 1 2 103   0 -1.209298e+03  1.267688e+02 -1.306868e+03  1.785042e+03 0.0022 0.0 9.0
#pdf 2 21 5.970920e-01 2.534527e-01 5000.0 2.971836e-02 3.089780e-01
</event>
<event>
4 7 1.0 5000.0 7.905138e-03 7.739137e-02
21 -1 0 0 103 101  0.000000e+00  0.000000e+00  3.193142e+03  3.193142e+03 0.0 0.0 9.0
 2 -1 0 0 101   0  0.000000e+00  0.000000e+00 -1.951430e+03  1.951430e+03 0.0 0.0 9.0
22  1 1 2   0   0  2.182369e+03 -8.542290e+02  1.506549e+03  2.786060e+03 0.0 0.0 9.0
 2  1 1 2 103   0 -2.182369e+03  8.542290e+02 -2.648366e+02  2.358512e+03 0.0022 0.0 9.0
#pdf 21 2 4.912527e-01 3.002200e-01 5000.0 3.177831e-03 3.591270e-02
</event>
<event>
4 7 1.0 5000.0 7.905138e-03 7.739137e-02
21 -1 0 0 103 101  0.000000e+00  0.000000e+00  3.309021e+03  3.309021e+03 0.0 0.0 9.0
 2 -1 0 0 101   0  0.000000e+00  0.000000e+00 -2.046619e+03  2.046619e+03 0.0 0.0 9.0
 2  1 1 2 103   0  1.708599e+03  1.699464e+03  1.641932e+03  2.916064e+03 0.0022 0.0 9.0
22  1 1 2   0   0 -1.708599e+03 -1.699464e+03 -3.795301e+02  2.439576e+03 0.0 0.0 9.0
#pdf 21 2 5.090802e-01 3.148645e-01 5000.0 2.485025e-03 3.003172e-02
</event>
<event>
4 7 1.0 5000.0 7.905138e-03 7.739137e-02
 2 -1 0 0 101   0  0.000000e+00  0.000000e+00  2.594205e+03  2.594205e+03 0.0 0.0 9.0
21 -1 0 0 103 101  0.000000e+00  0.000000e+00 -2.421161e+03  2.421161e+03 0.0 0.0 9.0
22  1 1 2   0   0  2.454490e+03 -5.052643e+02  1.208173e+02  2.508867e+03 0.0 0.0 9.0
 2  1 1 2 103   0 -2.454490e+03  5.052643e+02  5.222673e+01  2.506500e+03 0.0022 0.0 9.0
#pdf 2 21 3.991085e-01 3.724863e-01 5000.0 1.433758e-01 1.684945e-01
</event>
<event>
4 7 1.0 5000.0 7.905138e-03 7.739137e-02
21 -1 0 0 103 101  0.000000e+00  0.000000e+00  1.582554e+03  1.582554e+03 0.0 0.0 9.0
 2 -1 0 0 101   0  0.000000e+00  0.000000e+00 -4.197436e+03  4.197436e+03 0.0 0.0 9.0
22  1 1 2   0   0 -1.338655e+03  2.132747e+03 -6.911662e+02  2.611191e+03 0.0 0.0 9.0
 2  1 1 2 103   0  1.338655e+03 -2.132747e+03 -1.923716e+03  3.168799e+03 0.0022 0.0 9.0
#pdf 21 2 2.434699e-01 6.457594e-01 5000.0 7.237059e-02 2.984122e-04
</event>
<event>
4 7 1.0 5000.0 7.905138e-03 7.739137e-02
21 -1 0 0 103 101  0.000000e+00  0.000000e+00  2.021278e+03  2.021278e+03 0.0 0.0 9.0
 2 -1 0 0 101   0  0.000000e+00  0.000000e+00 -3.105132e+03  3.105132e+03 0.0 0.0 9.0
22  1 1 2   0   0  2.425673e+03 -6.120306e+02 -6.786649e+02  2.592114e+03 0.0 0.0 9.0
 2  1 1 2 103   0 -2.425673e+03  6.120306e+02 -4.051889e+02  2.534295e+03 0.0022 0.0 9.0
#pdf 21 2 3.109658e-01 4.777125e-01 5000.0 3.151721e-02 3.818674e-03
</event>
<event>
4 7 1.0 5000.0 7.905138e-03 7.739137e-02
 2 -1 0 0 101   0  0.000000e+00  0.000000e+00  4.160279e+03  4.160279e+03 0.0 0.0 9.0
21 -1 0 0 103 101  0.000000e+00  0.000000e+00 -1.510594e+03  1.510594e+03 0.0 0.0 9.0
 2  1 1 2 103   0 -3.877683e+01 -2.331443e+03  2.836770e+02  2.348957e+03 0.0022 0.0 9.0
22  1 1 2   0   0  3.877683e+01  2.331443e+03  2.366008e+03  3.321915e+03 0.0 0.0 9.0
#pdf 2 21 6.400429e-01 2.323991e-01 5000.0 1.882081e-02 3.374399e-01
</event>
<event>
4 7 1.0 5000.0 7.905138e-03 7.739137e-02
 2 -1 0 0 101   0  0.000000e+00  0.000000e+00  3.870126e+03  3.870126e+03 0.0 0.0 9.0
21 -1 0 0 103 101  0.000000e+00  0.000000e+00 -1.690867e+03  1.690867e+03 0.0 0.0 9.0
22  1 1 2   0   0  1.102760e+03 -8.625998e+01 -1.417491e+03  1.797999e+03 0.0 0.0 9.0
 2  1 1 2 103   0 -1.102760e+03  8.625998e+01  3.596749e+03  3.762994e+03 0.0022 0.0 9.0
#pdf 2 21 5.954039e-01 2.601334e-01 5000.0 3.022349e-02 3.001275e-01
</event>
<event>
4 7 1.0 5000.0 7.905138e-03 7.739137e-02
 2 -1 0 0 101   0  0.000000e+00  0.000000e+00  3.651830e+03  3.651830e+03 0.0 0.0 9.0
21 -1 0 0 103 101  0.000000e+00  0.000000e+00 -2.014225e+03  2.014225e+03 0.0 0.0 9.0
 2  1 1 2 103   0 -9.869098e+02 -4.040885e+02  3.423626e+03  3.585874e+03 0.0022 0.0 9.0
22  1 1 2   0   0  9.869098e+02  4.040885e+02 -1.786022e+03  2.080181e+03 0.0 0.0 9.0
#pdf 2 21 5.618199e-01 3.098808e-01 5000.0 4.167597e-02 2.372069e-01
</event>
<event>
4 7 1.0 5000.0 7.905138e-03 7.739137e-02
21 -1 0 0 103 101  0.000000e+00  0.000000e+00  1.650480e+03  1.650480e+03 0.0 0.0 9.0
 2 -1 0 0 101   0  0.000000e+00  0.000000e+00 -3.392478e+03  3.392478e+03 0.0 0.0 9.0
22  1 1 2   0   0  4.324343e+02  2.318846e+03 -6.711526e+02  2.452446e+03 0.0 0.0 9.0
 2  1 1 2 103   0 -4.324343e+02 -2.318846e+03 -1.070845e+03  2.590512e+03 0.0022 0.0 9.0
#pdf 21 2 2.539200e-01 5.219197e-01 5000.0 6.356989e-02 2.074589e-03
</event>
<event>
4 7 1.0 5000.0 7.905138e-03 7.739137e-02
 2 -1 0 0 101   0  0.000000e+00  0.000000e+00  1.617067e+03  1.617067e+03 0.0 0.0 9.0
21 -1 0 0 103 101  0.000000e+00  0.000000e+00 -3.240366e+03  3.240366e+03 0.0 0.0 9.0
22  1 1 2   0   0 -1.838656e+03  8.494422e+02  3.200367e+02  2.050520e+03 0.0 0.0 9.0
 2  1 1 2 103   0  1.838656e+03 -8.494422e+02 -1.943335e+03  2.806913e+03 0.0022 0.0 9.0
#pdf 2 21 2.487795e-01 4.985178e-01 5000.0 3.152442e-01 7.128140e-02
</event>
<event>
4 7 1.0 5000.0 7.905138e-03 7.739137e-02
21 -1 0 0 103 101  0.000000e+00  0.000000e+00  2.359927e+03  2.359927e+03 0.0 0.0 9.0
 2 -1 0 0 101   0  0.000000e+00  0.000000e+00 -2.657096e+03  2.657096e+03 0.0 0.0 9.0
22  1 1 2   0   0  2.174068e+03 -1.179106e+03 -5.413128e+02  2.531774e+03 0.0 0.0 9.0
 2  1 1 2 103   0 -2.174068e+03  1.179106e+03  2.441440e+02  2.485250e+03 0.0022 0.0 9.0
#pdf 21 2 3.630658e-01 4.087840e-01 5000.0 1.661254e-02 9.377957e-03
</event>
<event>
4 7 1.0 5000.0 7.905138e-03 7.739137e-02
 2 -1 0 0 101   0  0.000000e+00  0.000000e+00  4.234861e+03  4.234861e+03 0.0 0.0 9.0
21 -1 0 0 103 101  0.000000e+00  0.000000e+00 -1.444171e+03  1.444171e+03 0.0 0.0 9.0
22  1 1 2   0   0 -1.243804e+03  1.810660e+03  2.699607e+03  3.480433e+03 0.0 0.0 9.0
 2  1 1 2 103   0  1.243804e+03 -1.810660e+03  9.108351e+01  2.198598e+03 0.0022 0.0 9.0
#pdf 2 21 6.515170e-01 2.221801e-01 5000.0 1.650098e-02 3.514265e-01
</event>
<event>
4 7 1.0 5000.0 7.905138e-03 7.739137e-02
21 -1 0 0 103 101  0.000000e+00  0.000000e+00  2.160088e+03  2.160088e+03 0.0 0.0 9.0
 2 -1 0 0 101   0  0.000000e+00  0.000000e+00 -2.889327e+03  2.889327e+03 0.0 0.0 9.0
22  1 1 2   0   0  1.136206e+03  2.128666e+03 -1.018792e+03  2.619183e+03 0.0 0.0 9.0
 2  1 1 2 103   0 -1.136206e+03 -2.128666e+03  2.895539e+02  2.430232e+03 0.0022 0.0 9.0
#pdf 21 2 3.323213e-01 4.445118e-01 5000.0 2.424657e-02 5.926687e-03
</event>
<event>
4 7 1.0 5000.0 7.905138e-03 7.739137e-02
 2 -1 0 0 101   0  0.000000e+00  0.000000e+00  1.264642e+03  1.264642e+03 0.0 0.0 9.0
21 -1 0 0 103 101  0.000000e+00  0.000000e+00 -4.557998e+03  4.557998e+03 0.0 0.0 9.0
 2  1 1 2 103   0 -2.174513e+03  8.331822e+02 -9.380223e+02  2.510495e+03 0.0022 0.0 9.0
22  1 1 2   0   0  2.174513e+03 -8.331822e+02 -2.355334e+03  3.312144e+03 0.0 0.0 9.0
#pdf 2 21 1.945603e-01 7.012305e-01 5000.0 3.895597e-01 8.801458e-03
</event>
<event>
4 7 1.0 5000.0 7.905138e-03 7.739137e-02
21 -1 0 0 103 101  0.000000e+00  0.000000e+00  1.905969e+03  1.905969e+03 0.0 0.0 9.0
 2 -1 0 0 101   0  0.000000e+00  0.000000e+00 -3.152014e+03  3.152014e+03 0.0 0.0 9.0
 2  1 1 2 103   0  1.242687e+03 -1.176600e+03 -2.433524e+03  2.975012e+03 0.0022 0.0 9.0
22  1 1 2   0   0 -1.242687e+03  1.176600e+03  1.187480e+03  2.082971e+03 0.0 0.0 9.0
#pdf 21 2 2.932261e-01 4.849252e-01 5000.0 3.917447e-02 3.462965e-03
</event>
<event>
4 7 1.0 5000.0 7.905138e-03 7.739137e-02
 2 -1 0 0 101   0  0.000000e+00  0.000000e+00  3.568245e+03  3.568245e+03 0.0 0.0 9.0
21 -1 0 0 103 101  0.000000e+00  0.000000e+00 -1.974601e+03  1.974601e+03 0.0 0.0 9.0
 2  1 1 2 103   0 -1.637651e+03 -1.162279e+03 -1.015520e+03  2.250350e+03 0.0022 0.0 9.0
22  1 1 2   0   0  1.637651e+03  1.162279e+03  2.609164e+03  3.292496e+03 0.0 0.0 9.0
#pdf 2 21 5.489607e-01 3.037847e-01 5000.0 4.677717e-02 2.445694e-01
</event>
<event>
4 7 1.0 5000.0 7.905138e-03 7.739137e-02
 2 -1 0 0 101   0  0.000000e+00  0.000000e+00  2.463429e+03  2.463429e+03 0.0 0.0 9.0
21 -1 0 0 103 101  0.000000e+00  0.000000e+00 -2.492550e+03  2.492550e+03 0.0 0.0 9.0
 2  1 1 2 103   0  1.221371e+03  1.248819e+03  1.743004e+03  2.467662e+03 0.0022 0.0 9.0
22  1 1 2   0   0 -1.221371e+03 -1.248819e+03 -1.772124e+03  2.488317e+03 0.0 0.0 9.0
#pdf 2 21 3.789891e-01 3.834692e-01 5000.0 1.621381e-01 1.578381e-01
</event>
<event>
4 7 1.0 5000.0 7.905138e-03 7.739137e-02
21 -1 0 0 103 101  0.000000e+00  0.000000e+00  2.018369e+03  2.018369e+03 0.0 0.0 9.0
 2 -1 0 0 101   0  0.000000e+00  0.000000e+00 -3.102971e+03  3.102971e+03 0.0 0.0 9.0
 2  1 1 2 103   0 -1.615477e+03 -1.617053e+03  5.003264e+02  2.339861e+03 0.0022 0.0 9.0
22  1 1 2   0   0  1.615477e+03  1.617053e+03 -1.584928e+03  2.781479e+03 0.0 0.0 9.0
#pdf 21 2 3.105183e-01 4.773802e-01 5000.0 3.169213e-02 3.835838e-03
</event>
<event>
4 7 1.0 5000.0 7.905138e-03 7.739137e-02
21 -1 0 0 103 101  0.000000e+00  0.000000e+00  2.075692e+03  2.075692e+03 0.0 0.0 9.0
 2 -1 0 0 101   0  0.000000e+00  0.000000e+00 -3.033023e+03  3.033023e+03 0.0 0.0 9.0
 2  1 1 2 103   0 -2.351881e+03 -4.614845e+02 -1.234556e+03  2.696005e+03 0.0022 0.0 9.0
22  1 1 2   0   0  2.351881e+03  4.614845e+02  2.772248e+02  2.412710e+03 0.0 0.0 9.0
#pdf 21 2 3.193372e-01 4.666189e-01 5000.0 2.842284e-02 4.429480e-03
</event>
<event>
4 7 1.0 5000.0 7.905138e-03 7.739137e-02
 2 -1 0 0 101   0  0.000000e+00  0.000000e+00  1.545372e+03  1.545372e+03 0.0 0.0 9.0
21 -1 0 0 103 101  0.000000e+00  0.000000e+00 -4.031767e+03  4.031767e+03 0.0 0.0 9.0
 2  1 1 2 103   0 -9.537489e+02 -2.031417e+03 -2.232112e+01  2.244280e+03 0.0022 0.0 9.0
22  1 1 2   0   0  9.537489e+02  2.031417e+03 -2.464074e+03  3.332860e+03 0.0 0.0 9.0
#pdf 2 21 2.377496e-01 6.202719e-01 5000.0 3.301237e-01 2.338602e-02
</event>
<event>
4 7 1.0 5000.0 7.905138e-03 7.739137e-02
 2 -1 0 0 101   0  0.000000e+00  0.000000e+00  2.142938e+03  2.142938e+03 0.0 0.0 9.0
21 -1 0 0 103 101  0.000000e+00  0.000000e+00 -2.888365e+03  2.888365e+03 0.0 0.0 9.0
22  1 1 2   0   0 -1.924049e+03 -8.279707e+02  9.846864e+02  2.314542e+03 0.0 0.0 9.0
 2  1 1 2 103   0  1.924049e+03  8.279707e+02 -1.730113e+03  2.716761e+03 0.0022 0.0 9.0
#pdf 2 21 3.296828e-01 4.443638e-01 5000.0 2.140848e-01 1.063675e-01
</event>
<event>
4 7 1.0 5000.0 7.905138e-03 7.739137e-02
21 -1 0 0 103 101  0.000000e+00  0.000000e+00  4.362881e+03  4.362881e+03 0.0 0.0 9.0
 2 -1 0 0 101   0  0.000000e+00  0.000000e+00 -1.088296e+03  1.088296e+03 0.0 0.0 9.0
22  1 1 2   0   0  2.644286e+02  8.922802e+02  4.101793e+03  4.206042e+03 0.0 0.0 9.0
 2  1 1 2 103   0 -2.644286e+02 -8.922802e+02 -8.272087e+02  1.245135e+03 0.0022 0.0 9.0
#pdf 21 2 6.712124e-01 1.674302e-01 5000.0 1.885749e-04 1.944284e-01
</event>
<event>
4 7 1.0 5000.0 7.905138e-03 7.739137e-02
 2 -1 0 0 101   0  0.000000e+00  0.000000e+00  1.586173e+03  1.586173e+03 0.0 0.0 9.0
21 -1 0 0 103 101  0.000000e+00  0.000000e+00 -3.436430e+03  3.436430e+03 0.0 0.0 9.0
 2  1 1 2 103   0  1.381734e+03  9.552469e+02 -2.669233e+03  3.153806e+03 0.0022 0.0 9.0
22  1 1 2   0   0 -1.381734e+03 -9.552469e+02  8.189759e+02  1.868798e+03 0.0 0.0 9.0
#pdf 2 21 2.440267e-01 5.286816e-01 5000.0 3.216488e-01 5.576017e-02
</event>
<event>
4 7 1.0 5000.0 7.905138e-03 7.739137e-02
 2 -1 0 0 101   0  0.000000e+00  0.000000e+00  3.100236e+03  3.100236e+03 0.0 0.0 9.0
21 -1 0 0 103 101  0.000000e+00  0.000000e+00 -1.985278e+03  1.985278e+03 0.0 0.0 9.0
 2  1 1 2 103   0 -1.810501e+03  1.317816e+03 -5.369873e+02  2.302804e+03 0.0022 0.0 9.0
22  1 1 2   0   0  1.810501e+03 -1.317816e+03  1.651945e+03  2.782710e+03 0.0 0.0 9.0
#pdf 2 21 4.769594e-01 3.054274e-01 5000.0 8.409572e-02 2.425731e-01
</event>
<event>
4 7 1.0 5000.0 7.905138e-03 7.739137e-02
 2 -1 0 0 101   0  0.000000e+00  0.000000e+00  2.903596e+03  2.903596e+03 0.0 0.0 9.0
21 -1 0 0 103 101  0.000000e+00  0.000000e+00 -2.144956e+03  2.144956e+03 0.0 0.0 9.0
22  1 1 2   0   0 -3.667127e+01 -1.004708e+03 -1.931056e+03  2.177099e+03 0.0 0.0 9.0
 2  1 1 2 103   0  3.667127e+01  1.004708e+03  2.689695e+03  2.871453e+03 0.0022 0.0 9.0
#pdf 2 21 4.467070e-01 3.299932e-01 5000.0 1.046375e-01 2.137318e-01
</event>
<event>
4 7 1.0 5000.0 7.905138e-03 7.739137e-02
21 -1 0 0 103 101  0.000000e+00  0.000000e+00  2.714222e+03  2.714222e+03 0.0 0.0 9.0
 2 -1 0 0 101   0  0.000000e+00  0.000000e+00 -2.286181e+03  2.286181e+03 0.0 0.0 9.0
22  1 1 2   0   0 -1.391134e+03  1.780440e+03 -8.386444e+02  2.410092e+03 0.0 0.0 9.0
 2  1 1 2 103   0  1.391134e+03 -1.780440e+03  1.266686e+03  2.590311e+03 0.0022 0.0 9.0
#pdf 21 2 4.175727e-01 3.517201e-01 5000.0 8.385675e-03 1.910929e-02
</event>
<event>
4 7 1.0 5000.0 7.905138e-03 7.739137e-02
21 -1 0 0 103 101  0.000000e+00  0.000000e+00  5.466360e+03  5.466360e+03 0.0 0.0 9.0
 2 -1 0 0 101   0  0.000000e+00  0.000000e+00 -1.175434e+03  1.175434e+03 0.0 0.0 9.0
22  1 1 2   0   0  2.343196e+03  8.856041e+02  1.637244e+03  2.992562e+03 0.0 0.0 9.0
 2  1 1 2 103   0 -2.343196e+03 -8.856041e+02  2.653682e+03  3.649231e+03 0.0022 0.0 9.0
#pdf 21 2 8.409784e-01 1.808360e-01 5000.0 2.839288e-06 1.622801e-01
</event>
<event>
4 7 1.0 5000.0 7.905138e-03 7.739137e-02
21 -1 0 0 103 101  0.000000e+00  0.000000e+00  2.660031e+03  2.660031e+03 0.0 0.0 9.0
 2 -1 0 0 101   0  0.000000e+00  0.000000e+00 -2.281907e+03  2.281907e+03 0.0 0.0 9.0
 2  1 1 2 103   0  1.933315e+03  5.849901e+02  1.603891e+03  2.579222e+03 0.0022 0.0 9.0
22  1 1 2   0   0 -1.933315e+03 -5.849901e+02 -1.225766e+03  2.362715e+03 0.0 0.0 9.0
#pdf 21 2 4.092356e-01 3.510625e-01 5000.0 9.324146e-03 1.926543e-02
</event>
<event>
4 7 1.0 5000.0 7.905138e-03 7.739137e-02
21 -1 0 0 103 101  0.000000e+00  0.000000e+00  2.768899e+03  2.768899e+03 0.0 0.0 9.0
 2 -1 0 0 101   0  0.000000e+00  0.000000e+00 -2.289830e+03  2.289830e+03 0.0 0.0 9.0
 2  1 1 2 103   0  2.404568e+03 -3.566786e+02 -4.200452e+02  2.466902e+03 0.0022 0.0 9.0
22  1 1 2   0   0 -2.404568e+03  3.566786e+02  8.991137e+02  2.591828e+03 0.0 0.0 9.0
#pdf 21 2 4.259844e-01 3.522816e-01 5000.0 7.530192e-03 1.897672e-02
</event>
<event>
4 7 1.0 5000.0 7.905138e-03 7.739137e-02
 2 -1 0 0 101   0  0.000000e+00  0.000000e+00  2.838173e+03  2.838173e+03 0.0 0.0 9.0
21 -1 0 0 103 101  0.000000e+00  0.000000e+00 -2.083695e+03  2.083695e+03 0.0 0.0 9.0
 2  1 1 2 103   0 -1.585783e+03  8.836142e+02 -1.260263e+03  2.209919e+03 0.0022 0.0 9.0
22  1 1 2   0   0  1.585783e+03 -8.836142e+02  2.014741e+03  2.711948e+03 0.0 0.0 9.0
#pdf 2 21 4.366419e-01 3.205684e-01 5000.0 1.121852e-01 2.245853e-01
</event>
<event>
4 7 1.0 5000.0 7.905138e-03 7.739137e-02
21 -1 0 0 103 101  0.000000e+00  0.000000e+00  3.222873e+03  3.222873e+03 0.0 0.0 9.0
 2 -1 0 0 101   0  0.000000e+00  0.000000e+00 -1.948850e+03  1.948850e+03 0.0 0.0 9.0
 2  1 1 2 103   0 -7.351595e+02  1.849169e+03 -9.349180e+02  2.198626e+03 0.0022 0.0 9.0
22  1 1 2   0   0  7.351595e+02 -1.849169e+03  2.208940e+03  2.973097e+03 0.0 0.0 9.0
#pdf 21 2 4.958265e-01 2.998231e-01 5000.0 2.985375e-03 3.609111e-02
</event>
<event>
4 7 1.0 5000.0 7.905138e-03 7.739137e-02
21 -1 0 0 103 101  0.000000e+00  0.000000e+00  1.881872e+03  1.881872e+03 0.0 0.0 9.0
 2 -1 0 0 101   0  0.000000e+00  0.000000e+00 -2.877756e+03  2.877756e+03 0.0 0.0 9.0
 2  1 1 2 103   0  1.065933e+03  9.762639e+02 -2.363030e+03  2.770057e+03 0.0022 0.0 9.0
22  1 1 2   0   0 -1.065933e+03 -9.762639e+02  1.367146e+03  1.989571e+03 0.0 0.0 9.0
#pdf 21 2 2.895187e-01 4.427317e-01 5000.0 4.097725e-02 6.069170e-03
</event>
<event>
4 7 1.0 5000.0 7.905138e-03 7.739137e-02
21 -1 0 0 103 101  0.000000e+00  0.000000e+00  4.184300e+03  4.184300e+03 0.0 0.0 9.0
 2 -1 0 0 101   0  0.000000e+00  0.000000e+00 -1.560134e+03  1.560134e+03 0.0 0.0 9.0
 2  1 1 2 103   0 -7.434539e+02 -2.408440e+03  8.421337e+02  2.657535e+03 0.0022 0.0 9.0
22  1 1 2   0   0  7.434539e+02  2.408440e+03  1.782032e+03  3.086898e+03 0.0 0.0 9.0
#pdf 21 2 6.437384e-01 2.400206e-01 5000.0 3.092399e-04 7.559757e-02
</event>
<event>
4 7 1.0 5000.0 7.905138e-03 7.739137e-02
21 -1 0 0 103 101  0.000000e+00  0.000000e+00  2.813314e+03  2.813314e+03 0.0 0.0 9.0
 2 -1 0 0 101   0  0.000000e+00  0.000000e+00 -2.175083e+03  2.175083e+03 0.0 0.0 9.0
 2  1 1 2 103   0 -1.414828e+03  1.551084e+03  1.638235e+03  2.662971e+03 0.0022 0.0 9.0
22  1 1 2   0   0  1.414828e+03 -1.551084e+03 -1.000003e+03  2.325426e+03 0.0 0.0 9.0
#pdf 21 2 4.328176e-01 3.346281e-01 5000.0 6.898168e-03 2.356911e-02
</event>
<event>
4 7 1.0 5000.0 7.905138e-03 7.739137e-02
21 -1 0 0 103 101  0.000000e+00  0.000000e+00  1.313680e+03  1.313680e+03 0.0 0.0 9.0
 2 -1 0 0 101   0  0.000000e+00  0.000000e+00 -4.539873e+03  4.539873e+03 0.0 0.0 9.0
 2  1 1 2 103   0  1.100859e+03  7.785256e+02  8.271566e+02  1.581828e+03 0.0022 0.0 9.0
22  1 1 2   0   0 -1.100859e+03 -7.785256e+02 -4.053349e+03  4.271725e+03 0.0 0.0 9.0
#pdf 21 2 2.021046e-01 6.984419e-01 5000.0 1.223945e-01 1.116535e-04
</event>
<event>
4 7 1.0 5000.0 7.905138e-03 7.739137e-02
 2 -1 0 0 101   0  0.000000e+00  0.000000e+00  1.997486e+03  1.997486e+03 0.0 0.0 9.0
21 -1 0 0 103 101  0.000000e+00  0.000000e+00 -3.039316e+03  3.039316e+03 0.0 0.0 9.0
 2  1 1 2 103   0 -1.502280e+03 -1.666485e+03 -1.561743e+03  2.733689e+03 0.0022 0.0 9.0
22  1 1 2   0   0  1.502280e+03  1.666485e+03  5.199132e+02  2.303112e+03 0.0 0.0 9.0
#pdf 2 21 3.073055e-01 4.675870e-01 5000.0 2.403020e-01 9.013812e-02
</event>
<event>
4 7 1.0 5000.0 7.905138e-03 7.739137e-02
21 -1 0 0 103 101  0.000000e+00  0.000000e+00  2.197694e+03  2.197694e+03 0.0 0.0 9.0
 2 -1 0 0 101   0  0.000000e+00  0.000000e+00 -2.729741e+03  2.729741e+03 0.0 0.0 9.0
22  1 1 2   0   0  3.048304e+02 -2.406641e+03 -6.060843e+02  2.500436e+03 0.0 0.0 9.0
 2  1 1 2 103   0 -3.048304e+02  2.406641e+03  7.403700e+01  2.426999e+03 0.0022 0.0 9.0
#pdf 21 2 3.381067e-01 4.199602e-01 5000.0 2.258112e-02 8.134428e-03
</event>
<event>
4 7 1.0 5000.0 7.905138e-03 7.739137e-02
21 -1 0 0 103 101  0.000000e+00  0.000000e+00  1.658977e+03  1.658977e+03 0.0 0.0 9.0
 2 -1 0 0 101   0  0.000000e+00  0.000000e+00 -3.380172e+03  3.380172e+03 0.0 0.0 9.0
 2  1 1 2 103   0 -2.046648e+03  6.132615e+02  2.259085e+02  2.148462e+03 0.0022 0.0 9.0
22  1 1 2   0   0  2.046648e+03 -6.132615e+02 -1.947103e+03  2.890686e+03 0.0 0.0 9.0
#pdf 21 2 2.552272e-01 5.200264e-01 5000.0 6.253958e-02 2.130843e-03
</event>
<event>
4 7 1.0 5000.0 7.905138e-03 7.739137e-02
21 -1 0 0 103 101  0.000000e+00  0.000000e+00  2.760907e+03  2.760907e+03 0.0 0.0 9.0
 2 -1 0 0 101   0  0.000000e+00  0.000000e+00 -2.229744e+03  2.229744e+03 0.0 0.0 9.0
22  1 1 2   0   0 -2.243029e+03 -1.054446e+03  3.806153e+02  2.507569e+03 0.0 0.0 9.0
 2  1 1 2 103   0  2.243029e+03  1.054446e+03  1.505475e+02  2.483083e+03 0.0022 0.0 9.0
#pdf 21 2 4.247549e-01 3.430376e-01 5000.0 7.650287e-03 2.125819e-02
</event>
<event>
4 7 1.0 5000.0 7.905138e-03 7.739137e-02
 2 -1 0 0 101   0  0.000000e+00  0.000000e+00  2.102727e+03  2.102727e+03 0.0 0.0 9.0
21 -1 0 0 103 101  0.000000e+00  0.000000e+00 -2.482681e+03  2.482681e+03 0.0 0.0 9.0
 2  1 1 2 103   0 -3.984547e+02  1.413763e+02  2.063132e+03  2.106008e+03 0.0022 0.0 9.0
22  1 1 2   0   0  3.984547e+02 -1.413763e+02 -2.443086e+03  2.479400e+03 0.0 0.0 9.0
#pdf 2 21 3.234965e-01 3.819509e-01 5000.0 2.211845e-01 1.592878e-01
</event>
<event>
4 7 1.0 5000.0 7.905138e-03 7.739137e-02
 2 -1 0 0 101   0  0.000000e+00  0.000000e+00  2.050509e+03  2.050509e+03 0.0 0.0 9.0
21 -1 0 0 103 101  0.000000e+00  0.000000e+00 -3.009858e+03  3.009858e+03 0.0 0.0 9.0
22  1 1 2   0   0  2.724910e+02  2.116839e+03 -1.774568e+03  2.775671e+03 0.0 0.0 9.0
 2  1 1 2 103   0 -2.724910e+02 -2.116839e+03  8.152184e+02  2.284697e+03 0.0022 0.0 9.0
#pdf 2 21 3.154630e-01 4.630552e-01 5000.0 2.305714e-01 9.315699e-02
</event>
<event>
4 7 1.0 5000.0 7.905138e-03 7.739137e-02
21 -1 0 0 103 101  0.000000e+00  0.000000e+00  1.547192e+03  1.547192e+03 0.0 0.0 9.0
 2 -1 0 0 101   0  0.000000e+00  0.000000e+00 -4.102920e+03  4.102920e+03 0.0 0.0 9.0
22  1 1 2   0   0 -9.702738e+02 -1.018129e+03 -3.621814e+03  3.885300e+03 0.0 0.0 9.0
 2  1 1 2 103   0  9.702738e+02  1.018129e+03  1.066086e+03  1.764811e+03 0.0022 0.0 9.0
#pdf 21 2 2.380295e-01 6.312184e-01 5000.0 7.750036e-02 3.835795e-04
</event>
<event>
4 7 1.0 5000.0 7.905138e-03 7.739137e-02
 2 -1 0 0 101   0  0.000000e+00  0.000000e+00  1.648937e+03  1.648937e+03 0.0 0.0 9.0
21 -1 0 0 103 101  0.000000e+00  0.000000e+00 -3.719632e+03  3.719632e+03 0.0 0.0 9.0
 2  1 1 2 103   0 -2.148812e+03 -7.427003e+02  2.907512e+01  2.273729e+03 0.0022 0.0 9.0
22  1 1 2   0   0  2.148812e+03  7.427003e+02 -2.099770e+03  3.094840e+03 0.0 0.0 9.0
#pdf 2 21 2.536826e-01 5.722511e-01 5000.0 3.086716e-01 3.781769e-02
</event>
<event>
4 7 1.0 5000.0 7.905138e-03 7.739137e-02
 2 -1 0 0 101   0  0.000000e+00  0.000000e+00  1.419203e+03  1.419203e+03 0.0 0.0 9.0
21 -1 0 0 103 101  0.000000e+00  0.000000e+00 -4.552369e+03  4.552369e+03 0.0 0.0 9.0
 2  1 1 2 103   0 -1.618955e+03 -7.983082e+02 -3.668701e+03  4.088726e+03 0.0022 0.0 9.0
22  1 1 2   0   0  1.618955e+03  7.983082e+02  5.355348e+02  1.882846e+03 0.0 0.0 9.0
#pdf 2 21 2.183389e-01 7.003645e-01 5000.0 3.566907e-01 8.906357e-03
</event>
<event>
4 7 1.0 5000.0 7.905138e-03 7.739137e-02
21 -1 0 0 103 101  0.000000e+00  0.000000e+00  2.328744e+03  2.328744e+03 0.0 0.0 9.0
 2 -1 0 0 101   0  0.000000e+00  0.000000e+00 -2.695784e+03  2.695784e+03 0.0 0.0 9.0
22  1 1 2   0   0 -8.389887e+02 -1.172616e+03  1.871082e+03  2.362176e+03 0.0 0.0 9.0
 2  1 1 2 103   0  8.389887e+02  1.172616e+03 -2.238122e+03  2.662352e+03 0.0022 0.0 9.0
#pdf 21 2 3.582683e-01 4.147360e-01 5000.0 1.761843e-02 8.693825e-03
</event>
<event>
4 7 1.0 5000.0 7.905138e-03 7.739137e-02
21 -1 0 0 103 101  0.000000e+00  0.000000e+00  2.663123e+03  2.663123e+03 0.0 0.0 9.0
 2 -1 0 0 101   0  0.000000e+00  0.000000e+00 -2.228344e+03  2.228344e+03 0.0 0.0 9.0
 2  1 1 2 103   0  2.191181e+03  6.443578e+02 -6.332566e+02  2.370123e+03 0.0022 0.0 9.0
22  1 1 2   0   0 -2.191181e+03 -6.443578e+02  1.068037e+03  2.521344e+03 0.0 0.0 9.0
#pdf 21 2 4.097113e-01 3.428221e-01 5000.0 9.267802e-03 2.131426e-02
</event>
<event>
4 7 1.0 5000.0 7.905138e-03 7.739137e-02
 2 -1 0 0 101   0  0.000000e+00  0.000000e+00  3.392306e+03  3.392306e+03 0.0 0.0 9.0
21 -1 0 0 103 101  0.000000e+00  0.000000e+00 -1.834919e+03  1.834919e+03 0.0 0.0 9.0
22  1 1 2   0   0  7.464987e+02 -4.027836e+02  3.236617e+03  3.345921e+03 0.0 0.0 9.0
 2  1 1 2 103   0 -7.464987e+02  4.027836e+02 -1.679230e+03  1.881305e+03 0.0022 0.0 9.0
#pdf 2 21 5.218933e-01 2.822953e-01 5000.0 5.901582e-02 2.713473e-01
</event>
<event>
4 7 1.0 5000.0 7.905138e-03 7.739137e-02
 2 -1 0 0 101   0  0.000000e+00  0.000000e+00  3.179979e+03  3.179979e+03 0.0 0.0 9.0
21 -1 0 0 103 101  0.000000e+00  0.000000e+00 -1.951499e+03  1.951499e+03 0.0 0.0 9.0
 2  1 1 2 103   0 -8.811529e+02 -2.625723e+02 -1.770345e+03  1.994867e+03 0.0022 0.0 9.0
22  1 1 2   0   0  8.811529e+02  2.625723e+02  2.998825e+03  3.136611e+03 0.0 0.0 9.0
#pdf 2 21 4.892275e-01 3.002306e-01 5000.0 7.662236e-02 2.489196e-01
</event>
<event>
4 7 1.0 5000.0 7.905138e-03 7.739137e-02
21 -1 0 0 103 101  0.000000e+00  0.000000e+00  2.125281e+03  2.125281e+03 0.0 0.0 9.0
 2 -1 0 0 101   0  0.000000e+00  0.000000e+00 -3.003971e+03  3.003971e+03 0.0 0.0 9.0
22  1 1 2   0   0  1.482731e+03 -1.748555e+03  6.388293e+02  2.379924e+03 0.0 0.0 9.0
 2  1 1 2 103   0 -1.482731e+03  1.748555e+03 -1.517519e+03  2.749327e+03 0.0022 0.0 9.0
#pdf 21 2 3.269663e-01 4.621493e-01 5000.0 2.588963e-02 4.699279e-03
</event>
<event>
4 7 1.0 5000.0 7.905138e-03 7.739137e-02
21 -1 0 0 103 101  0.000000e+00  0.000000e+00  1.990257e+03  1.990257e+03 0.0 0.0 9.0
 2 -1 0 0 101   0  0.000000e+00  0.000000e+00 -3.050883e+03  3.050883e+03 0.0 0.0 9.0
22  1 1 2   0   0  8.312376e+02 -1.331699e+03  1.412560e+03  2.111801e+03 0.0 0.0 9.0
 2  1 1 2 103   0 -8.312376e+02  1.331699e+03 -2.473185e+03  2.929339e+03 0.0022 0.0 9.0
#pdf 21 2 3.061934e-01 4.693666e-01 5000.0 3.342311e-02 4.270676e-03
</event>
<event>
4 7 1.0 5000.0 7.905138e-03 7.739137e-02
 2 -1 0 0 101   0  0.000000e+00  0.000000e+00  1.483939e+03  1.483939e+03 0.0 0.0 9.0
21 -1 0 0 103 101  0.000000e+00  0.000000e+00 -3.611684e+03  3.611684e+03 0.0 0.0 9.0
22  1 1 2   0   0 -1.842383e+03 -1.220775e+03 -3.054998e+02  2.231143e+03 0.0 0.0 9.0
 2  1 1 2 103   0  1.842383e+03  1.220775e+03 -1.822245e+03  2.864480e+03 0.0022 0.0 9.0
#pdf 2 21 2.282983e-01 5.556437e-01 5000.0 3.430605e-01 4.407372e-02
</event>
<event>
4 7 1.0 5000.0 7.905138e-03 7.739137e-02
21 -1 0 0 103 101  0.000000e+00  0.000000e+00  2.588328e+03  2.588328e+03 0.0 0.0 9.0
 2 -1 0 0 101   0  0.000000e+00  0.000000e+00 -2.427299e+03  2.427299e+03 0.0 0.0 9.0
 2  1 1 2 103   0  1.890741e+03  1.265779e+03 -9.714770e+02  2.474039e+03 0.0022 0.0 9.0
22  1 1 2   0   0 -1.890741e+03 -1.265779e+03  1.132506e+03  2.541588e+03 0.0 0.0 9.0
#pdf 21 2 3.982043e-01 3.734306e-01 5000.0 1.071907e-02 1.461074e-02
</event>
<event>
4 7 1.0 5000.0 7.905138e-03 7.739137e-02
 2 -1 0 0 101   0  0.000000e+00  0.000000e+00  2.024762e+03  2.024762e+03 0.0 0.0 9.0
21 -1 0 0 103 101  0.000000e+00  0.000000e+00 -2.204902e+03  2.204902e+03 0.0 0.0 9.0
22  1 1 2   0   0 -1.645183e+03 -1.028498e+03 -9.274695e+02  2.150496e+03 0.0 0.0 9.0
 2  1 1 2 103   0  1.645183e+03  1.028498e+03  7.473289e+02  2.079167e+03 0.0022 0.0 9.0
#pdf 2 21 3.115018e-01 3.392157e-01 5000.0 2.352698e-01 2.033999e-01
</event>
<event>
4 7 1.0 5000.0 7.905138e-03 7.739137e-02
21 -1 0 0 103 101  0.000000e+00  0.000000e+00  2.482389e+03  2.482389e+03 0.0 0.0 9.0
 2 -1 0 0 101   0  0.000000e+00  0.000000e+00 -2.438253e+03  2.438253e+03 0.0 0.0 9.0
22  1 1 2   0   0 -9.427732e+02  7.539688e+02  2.165843e+03  2.479550e+03 0.0 0.0 9.0
 2  1 1 2 103   0  9.427732e+02 -7.539688e+02 -2.121707e+03  2.441092e+03 0.0022 0.0 9.0
#pdf 21 2 3.819060e-01 3.751158e-01 5000.0 1.315858e-02 1.431396e-02
</event>
<event>
4 7 1.0 5000.0 7.905138e-03 7.739137e-02
 2 -1 0 0 101   0  0.000000e+00  0.000000e+00  2.871335e+03  2.871335e+03 0.0 0.0 9.0
21 -1 0 0 103 101  0.000000e+00  0.000000e+00 -2.182599e+03  2.182599e+03 0.0 0.0 9.0
22  1 1 2   0   0 -1.010583e+03 -2.861659e+02  2.638168e+03  2.839559e+03 0.0 0.0 9.0
 2  1 1 2 103   0  1.010583e+03  2.861659e+02 -1.949432e+03  2.214374e+03 0.0022 0.0 9.0
#pdf 2 21 4.417438e-01 3.357844e-01 5000.0 1.083240e-01 2.072096e-01
</event>
<event>
4 7 1.0 5000.0 7.905138e-03 7.739137e-02
 2 -1 0 0 101   0  0.000000e+00  0.000000e+00  1.232388e+03  1.232388e+03 0.0 0.0 9.0
21 -1 0 0 103 101  0.000000e+00  0.000000e+00 -4.955838e+03  4.955838e+03 0.0 0.0 9.0
 2  1 1 2 103   0  2.189830e+03  3.577633e+02 -3.224142e+03  3.913878e+03 0.0022 0.0 9.0
22  1 1 2   0   0 -2.189830e+03 -3.577633e+02 -4.993081e+02  2.274348e+03 0.0 0.0 9.0
#pdf 2 21 1.895981e-01 7.624366e-01 5000.0 3.963552e-01 3.441376e-03
</event>
<event>
4 7 1.0 5000.0 7.905138e-03 7.739137e-02
 2 -1 0 0 101   0  0.000000e+00  0.000000e+00  2.437791e+03  2.437791e+03 0.0 0.0 9.0
21 -1 0 0 103 101  0.000000e+00  0.000000e+00 -2.368865e+03  2.368865e+03 0.0 0.0 9.0
 2  1 1 2 103   0 -5.378868e+01 -1.749840e+03  1.680829e+03  2.426936e+03 0.0022 0.0 9.0
22  1 1 2   0   0  5.378868e+01  1.749840e+03 -1.611904e+03  2.379720e+03 0.0 0.0 9.0
#pdf 2 21 3.750447e-01 3.644408e-01 5000.0 1.659783e-01 1.765862e-01
</event>
<event>
4 7 1.0 5000.0 7.905138e-03 7.739137e-02
 2 -1 0 0 101   0  0.000000e+00  0.000000e+00  3.854848e+03  3.854848e+03 0.0 0.0 9.0
21 -1 0 0 103 101  0.000000e+00  0.000000e+00 -1.589828e+03  1.589828e+03 0.0 0.0 9.0
22  1 1 2   0   0 -2.391012e+02  1.666658e+03 -8.632144e+02  1.892104e+03 0.0 0.0 9.0
 2  1 1 2 103   0  2.391012e+02 -1.666658e+03  3.128234e+03  3.552572e+03 0.0022 0.0 9.0
#pdf 2 21 5.930535e-01 2.445890e-01 5000.0 3.093762e-02 3.208984e-01
</event>
<event>
4 7 1.0 5000.0 7.905138e-03 7.739137e-02
 2 -1 0 0 101   0  0.000000e+00  0.000000e+00  3.282689e+03  3.282689e+03 0.0 0.0 9.0
21 -1 0 0 103 101  0.000000e+00  0.000000e+00 -1.923304e+03  1.923304e+03 0.0 0.0 9.0
 2  1 1 2 103   0 -1.559300e+03 -3.811892e+02  2.682272e+03  3.125909e+03 0.0022 0.0 9.0
22  1 1 2   0   0  1.559300e+03  3.811892e+02 -1.322887e+03  2.080084e+03 0.0 0.0 9.0
#pdf 2 21 5.050291e-01 2.958929e-01 5000.0 6.769886e-02 2.542482e-01
</event>
<event>
4 7 1.0 5000.0 7.905138e-03 7.739137e-02
 2 -1 0 0 101   0  0.000000e+00  0.000000e+00  2.000037e+03  2.000037e+03 0.0 0.0 9.0
21 -1 0 0 103 101  0.000000e+00  0.000000e+00 -3.138804e+03  3.138804e+03 0.0 0.0 9.0
 2  1 1 2 103   0  1.224850e+03  1.986922e+03 -1.503434e+03  2.776406e+03 0.0022 0.0 9.0
22  1 1 2   0   0 -1.224850e+03 -1.986922e+03  3.646664e+02  2.362435e+03 0.0 0.0 9.0
#pdf 2 21 3.076980e-01 4.828930e-01 5000.0 2.398289e-01 8.042032e-02
</event>
<event>
4 7 1.0 5000.0 7.905138e-03 7.739137e-02
21 -1 0 0 103 101  0.000000e+00  0.000000e+00  2.206485e+03  2.206485e+03 0.0 0.0 9.0
 2 -1 0 0 101   0  0.000000e+00  0.000000e+00 -2.897148e+03  2.897148e+03 0.0 0.0 9.0
22  1 1 2   0   0 -1.816599e+03  1.597681e+03 -1.086931e+03  2.652175e+03 0.0 0.0 9.0
 2  1 1 2 103   0  1.816599e+03 -1.597681e+03  3.962677e+02  2.451457e+03 0.0022 0.0 9.0
#pdf 21 2 3.394592e-01 4.457151e-01 5000.0 2.220957e-02 5.831482e-03
</event>
<event>
4 7 1.0 5000.0 7.905138e-03 7.739137e-02
 2 -1 0 0 101   0  0.000000e+00  0.000000e+00  3.590754e+03  3.590754e+03 0.0 0.0 9.0
21 -1 0 0 103 101  0.000000e+00  0.000000e+00 -1.755384e+03  1.755384e+03 0.0 0.0 9.0
22  1 1 2   0   0 -7.211820e+02  1.649839e+03  2.780495e+03  3.312586e+03 0.0 0.0 9.0
 2  1 1 2 103   0  7.211820e+02 -1.649839e+03 -9.451255e+02  2.033552e+03 0.0022 0.0 9.0
#pdf 2 21 5.524237e-01 2.700591e-01 5000.0 4.535272e-02 2.871106e-01
</event>
<event>
4 7 1.0 5000.0 7.905138e-03 7.739137e-02
 2 -1 0 0 101   0  0.000000e+00  0.000000e+00  2.409511e+03  2.409511e+03 0.0 0.0 9.0
21 -1 0 0 103 101  0.000000e+00  0.000000e+00 -2.496958e+03  2.496958e+03 0.0 0.0 9.0
22  1 1 2   0   0 -1.530398e+03  1.071515e+03  1.545926e+03  2.424902e+03 0.0 0.0 9.0
 2  1 1 2 103   0  1.530398e+03 -1.071515e+03 -1.633374e+03  2.481567e+03 0.0022 0.0 9.0
#pdf 2 21 3.706940e-01 3.841474e-01 5000.0 1.702733e-01 1.571931e-01
</event>
<event>
4 7 1.0 5000.0 7.905138e-03 7.739137e-02
 2 -1 0 0 101   0  0.000000e+00  0.000000e+00  3.371310e+03  3.371310e+03 0.0 0.0 9.0
21 -1 0 0 103 101  0.000000e+00  0.000000e+00 -1.893361e+03  1.893361e+03 0.0 0.0 9.0
 2  1 1 2 103   0  2.194936e+03  7.396115e+02  1.790382e+03  2.927496e+03 0.0022 0.0 9.0
22  1 1 2   0   0 -2.194936e+03 -7.396115e+02 -3.124326e+02  2.337174e+03 0.0 0.0 9.0
#pdf 2 21 5.186630e-01 2.912863e-01 5000.0 6.061223e-02 2.599840e-01
</event>
<event>
4 7 1.0 5000.0 7.905138e-03 7.739137e-02
 2 -1 0 0 101   0  0.000000e+00  0.000000e+00  1.617359e+03  1.617359e+03 0.0 0.0 9.0
21 -1 0 0 103 101  0.000000e+00  0.000000e+00 -4.215939e+03  4.215939e+03 0.0 0.0 9.0
 2  1 1 2 103   0 -4.082178e+02  1.474620e+03 -3.662779e+03  3.969520e+03 0.0022 0.0 9.0
22  1 1 2   0   0  4.082178e+02 -1.474620e+03  1.064199e+03  1.863777e+03 0.0 0.0 9.0
#pdf 2 21 2.488244e-01 6.486059e-01 5000.0 3.151836e-01 1.706575e-02
</event>
<event>
4 7 1.0 5000.0 7.905138e-03 7.739137e-02
21 -1 0 0 103 101  0.000000e+00  0.000000e+00  2.282707e+03  2.282707e+03 0.0 0.0 9.0
 2 -1 0 0 101   0  0.000000e+00  0.000000e+00 -2.791680e+03  2.791680e+03 0.0 0.0 9.0
22  1 1 2   0   0  1.833165e+03  3.832944e+02  1.446778e+03  2.366553e+03 0.0 0.0 9.0
 2  1 1 2 103   0 -1.833165e+03 -3.832944e+02 -1.955750e+03  2.707834e+03 0.0022 0.0 9.0
#pdf 21 2 3.511858e-01 4.294893e-01 5000.0 1.923610e-02 7.197962e-03
</event>
<event>
4 7 1.0 5000.0 7.905138e-03 7.739137e-02
 2 -1 0 0 101   0  0.000000e+00  0.000000e+00  1.108649e+03  1.108649e+03 0.0 0.0 9.0
21 -1 0 0 103 101  0.000000e+00  0.000000e+00 -5.629777e+03  5.629777e+03 0.0 0.0 9.0
22  1 1 2   0   0  6.374430e+02  1.962752e+03 -4.159525e+03  4.643316e+03 0.0 0.0 9.0
 2  1 1 2 103   0 -6.374430e+02 -1.962752e+03 -3.616023e+02  2.095110e+03 0.0022 0.0 9.0
#pdf 2 21 1.705614e-01 8.661195e-01 5000.0 4.224045e-01 3.290167e-04
</event>
<event>
4 7 1.0 5000.0 7.905138e-03 7.739137e-02
21 -1 0 0 103 101  0.000000e+00  0.000000e+00  4.629748e+03  4.629748e+03 0.0 0.0 9.0
 2 -1 0 0 101   0  0.000000e+00  0.000000e+00 -9.931985e+02  9.931985e+02 0.0 0.0 9.0
 2  1 1 2 103   0 -1.069581e+03  1.836984e+03  1.448028e+03  2.572022e+03 0.0022 0.0 9.0
22  1 1 2   0   0  1.069581e+03 -1.836984e+03  2.188522e+03  3.050924e+03 0.0 0.0 9.0
#pdf 21 2 7.122689e-01 1.527998e-01 5000.0 8.433354e-05 2.388353e-01
</event>
<event>
4 7 1.0 5000.0 7.905138e-03 7.739137e-02
 2 -1 0 0 101   0  0.000000e+00  0.000000e+00  2.656391e+03  2.656391e+03 0.0 0.0 9.0
21 -1 0 0 103 101  0.000000e+00  0.000000e+00 -2.378619e+03  2.378619e+03 0.0 0.0 9.0
 2  1 1 2 103   0  1.225006e+03  1.404284e+03  1.828435e+03  2.610714e+03 0.0022 0.0 9.0
22  1 1 2   0   0 -1.225006e+03 -1.404284e+03 -1.550663e+03  2.424296e+03 0.0 0.0 9.0
#pdf 2 21 4.086755e-01 3.659414e-01 5000.0 1.349465e-01 1.750593e-01
</event>
<event>
4 7 1.0 5000.0 7.905138e-03 7.739137e-02
21 -1 0 0 103 101  0.000000e+00  0.000000e+00  2.482853e+03  2.482853e+03 0.0 0.0 9.0
 2 -1 0 0 101   0  0.000000e+00  0.000000e+00 -1.832145e+03  1.832145e+03 0.0 0.0 9.0
 2  1 1 2 103   0  3.106287e+02  1.471719e+03 -1.204256e+03  1.926831e+03 0.0022 0.0 9.0
22  1 1 2   0   0 -3.106287e+02 -1.471719e+03  1.854965e+03  2.388167e+03 0.0 0.0 9.0
#pdf 21 2 3.819774e-01 2.818684e-01 5000.0 1.314682e-02 4.497633e-02
</event>
<event>
4 7 1.0 5000.0 7.905138e-03 7.739137e-02
21 -1 0 0 103 101  0.000000e+00  0.000000e+00  1.939322e+03  1.939322e+03 0.0 0.0 9.0
 2 -1 0 0 101   0  0.000000e+00  0.000000e+00 -3.244981e+03  3.244981e+03 0.0 0.0 9.0
22  1 1 2   0   0  1.078915e+03 -3.209470e+02  1.663715e+03  2.008734e+03 0.0 0.0 9.0
 2  1 1 2 103   0 -1.078915e+03  3.209470e+02 -2.969373e+03  3.175570e+03 0.0022 0.0 9.0
#pdf 21 2 2.983573e-01 4.992278e-01 5000.0 3.676711e-02 2.848679e-03
</event>
<event>
4 7 1.0 5000.0 7.905138e-03 7.739137e-02
21 -1 0 0 103 101  0.000000e+00  0.000000e+00  3.383279e+03  3.383279e+03 0.0 0.0 9.0
 2 -1 0 0 101   0  0.000000e+00  0.000000e+00 -1.883591e+03  1.883591e+03 0.0 0.0 9.0
22  1 1 2   0   0  2.452443e+03  1.941449e+02  1.592314e+02  2.465264e+03 0.0 0.0 9.0
 2  1 1 2 103   0 -2.452443e+03 -1.941449e+02  1.340457e+03  2.801606e+03 0.0022 0.0 9.0
#pdf 21 2 5.205045e-01 2.897832e-01 5000.0 2.116489e-03 4.084630e-02
</event>
<event>
4 7 1.0 5000.0 7.905138e-03 7.739137e-02
 2 -1 0 0 101   0  0.000000e+00  0.000000e+00  1.901966e+03  1.901966e+03 0.0 0.0 9.0
21 -1 0 0 103 101  0.000000e+00  0.000000e+00 -3.236398e+03  3.236398e+03 0.0 0.0 9.0
 2  1 1 2 103   0 -1.661913e+03 -2.171648e+02 -2.561528e+03  3.061135e+03 0.0022 0.0 9.0
22  1 1 2   0   0  1.661913e+03  2.171648e+02  1.227097e+03  2.077230e+03 0.0 0.0 9.0
#pdf 2 21 2.926102e-01 4.979074e-01 5000.0 2.583282e-01 7.162397e-02
</event>
<event>
4 7 1.0 5000.0 7.905138e-03 7.739137e-02
21 -1 0 0 103 101  0.000000e+00  0.000000e+00  1.846942e+03  1.846942e+03 0.0 0.0 9.0
 2 -1 0 0 101   0  0.000000e+00  0.000000e+00 -3.495313e+03  3.495313e+03 0.0 0.0 9.0
22  1 1 2   0   0  7.160570e+01  1.947423e+03  8.897997e+02  2.142271e+03 0.0 0.0 9.0
 2  1 1 2 103   0 -7.160570e+01 -1.947423e+03 -2.538171e+03  3.199984e+03 0.0022 0.0 9.0
#pdf 21 2 2.841449e-01 5.377405e-01 5000.0 4.373788e-02 1.653139e-03
</event>
<event>
4 7 1.0 5000.0 7.905138e-03 7.739137e-02
21 -1 0 0 103 101  0.000000e+00  0.000000e+00  1.525290e+03  1.525290e+03 0.0 0.0 9.0
 2 -1 0 0 101   0  0.000000e+00  0.000000e+00 -3.133005e+03  3.133005e+03 0.0 0.0 9.0
22  1 1 2   0   0 -4.975141e+02 -8.464546e+02 -2.884860e+03  3.047363e+03 0.0 0.0 9.0
 2  1 1 2 103   0  4.975141e+02  8.464546e+02  1.277144e+03  1.610932e+03 0.0022 0.0 9.0
#pdf 21 2 2.346600e-01 4.820008e-01 5000.0 8.081115e-02 3.603173e-03
</event>
<event>
4 7 1.0 5000.0 7.905138e-03 7.739137e-02
 2 -1 0 0 101   0  0.000000e+00  0.000000e+00  1.220467e+03  1.220467e+03 0.0 0.0 9.0
21 -1 0 0 103 101  0.000000e+00  0.000000e+00 -5.203796e+03  5.203796e+03 0.0 0.0 9.0
 2  1 1 2 103   0 -1.813173e+03  1.393219e+03 -6.413185e+02  2.374857e+03 0.0022 0.0 9.0
22  1 1 2   0   0  1.813173e+03 -1.393219e+03 -3.342011e+03  4.049406e+03 0.0 0.0 9.0
#pdf 2 21 1.877641e-01 8.005840e-01 5000.0 3.988509e-01 1.682334e-03
</event>
<event>
4 7 1.0 5000.0 7.905138e-03 7.739137e-02
 2 -1 0 0 101   0  0.000000e+00  0.000000e+00  2.869897e+03  2.869897e+03 0.0 0.0 9.0
21 -1 0 0 103 101  0.000000e+00  0.000000e+00 -2.030001e+03  2.030001e+03 0.0 0.0 9.0
 2  1 1 2 103   0  5.195419e+02 -8.041928e+02 -1.829019e+03  2.064452e+03 0.0022 0.0 9.0
22  1 1 2   0   0 -5.195419e+02  8.041928e+02  2.668915e+03  2.835447e+03 0.0 0.0 9.0
#pdf 2 21 4.415226e-01 3.123079e-01 5000.0 1.084899e-01 2.343096e-01
</event>
<event>
4 7 1.0 5000.0 7.905138e-03 7.739137e-02
 2 -1 0 0 101   0  0.000000e+00  0.000000e+00  1.746880e+03  1.746880e+03 0.0 0.0 9.0
21 -1 0 0 103 101  0.000000e+00  0.000000e+00 -3.481909e+03  3.481909e+03 0.0 0.0 9.0
22  1 1 2   0   0 -2.343945e+03 -7.666397e+02 -8.947516e+02  2.623432e+03 0.0 0.0 9.0
 2  1 1 2 103   0  2.343945e+03  7.666397e+02 -8.402778e+02  2.605357e+03 0.0022 0.0 9.0
#pdf 2 21 2.687507e-01 5.356783e-01 5000.0 2.888174e-01 5.252922e-02
</event>
<event>
4 7 1.0 5000.0 7.905138e-03 7.739137e-02
 2 -1 0 0 101   0  0.000000e+00  0.000000e+00  1.609512e+03  1.609512e+03 0.0 0.0 9.0
21 -1 0 0 103 101  0.000000e+00  0.000000e+00 -3.996534e+03  3.996534e+03 0.0 0.0 9.0
22  1 1 2   0   0 -2.419748e+03 -2.480809e+02 -3.998144e+02  2.465071e+03 0.0 0.0 9.0
 2  1 1 2 103   0  2.419748e+03  2.480809e+02 -1.987208e+03  3.140974e+03 0.0022 0.0 9.0
#pdf 2 21 2.476172e-01 6.148514e-01 5000.0 3.168158e-01 2.476878e-02
</event>
<event>
4 7 1.0 5000.0 7.905138e-03 7.739137e-02
 2 -1 0 0 101   0  0.000000e+00  0.000000e+00  2.266574e+03  2.266574e+03 0.0 0.0 9.0
21 -1 0 0 103 101  0.000000e+00  0.000000e+00 -2.714850e+03  2.714850e+03 0.0 0.0 9.0
22  1 1 2   0   0 -3.227054e+02 -1.427296e+03 -2.235320e+03  2.671697e+03 0.0 0.0 9.0
 2  1 1 2 103   0  3.227054e+02  1.427296e+03  1.787044e+03  2.309727e+03 0.0022 0.0 9.0
#pdf 2 21 3.487037e-01 4.176692e-01 5000.0 1.930579e-01 1.273203e-01
</event>
<event>
4 7 1.0 5000.0 7.905138e-03 7.739137e-02
 2 -1 0 0 101   0  0.000000e+00  0.000000e+00  3.837150e+03  3.837150e+03 0.0 0.0 9.0
21 -1 0 0 103 101  0.000000e+00  0.000000e+00 -1.194519e+03  1.194519e+03 0.0 0.0 9.0
 2  1 1 2 103   0  7.372272e+02  2.048911e+02  3.670981e+03  3.749878e+03 0.0022 0.0 9.0
22  1 1 2   0   0 -7.372272e+02 -2.048911e+02 -1.028350e+03  1.281791e+03 0.0 0.0 9.0
#pdf 2 21 5.903308e-01 1.837722e-01 5000.0 3.178091e-02 4.042911e-01
</event>
<event>
4 7 1.0 5000.0 7.905138e-03 7.739137e-02
21 -1 0 0 103 101  0.000000e+00  0.000000e+00  1.534241e+03  1.534241e+03 0.0 0.0 9.0
 2 -1 0 0 101   0  0.000000e+00  0.000000e+00 -4.137876e+03  4.137876e+03 0.0 0.0 9.0
 2  1 1 2 103   0  1.258948e+03 -1.805542e+02 -3.750057e+03  3.959858e+03 0.0022 0.0 9.0
22  1 1 2   0   0 -1.258948e+03  1.805542e+02  1.146421e+03  1.712259e+03 0.0 0.0 9.0
#pdf 21 2 2.360370e-01 6.365964e-01 5000.0 7.944252e-02 3.499581e-04
</event>
<event>
4 7 1.0 5000.0 7.905138e-03 7.739137e-02
 2 -1 0 0 101   0  0.000000e+00  0.000000e+00  4.167283e+03  4.167283e+03 0.0 0.0 9.0
21 -1 0 0 103 101  0.000000e+00  0.000000e+00 -1.499206e+03  1.499206e+03 0.0 0.0 9.0
22  1 1 2   0   0  2.054922e+03 -1.416496e+02 -2.709343e+02  2.077540e+03 0.0 0.0 9.0
 2  1 1 2 103   0 -2.054922e+03  1.416496e+02  2.939011e+03  3.588949e+03 0.0022 0.0 9.0
#pdf 2 21 6.411204e-01 2.306471e-01 5000.0 1.859273e-02 3.398421e-01
</event>
<event>
4 7 1.0 5000.0 7.905138e-03 7.739137e-02
 2 -1 0 0 101   0  0.000000e+00  0.000000e+00  1.941842e+03  1.941842e+03 0.0 0.0 9.0
21 -1 0 0 103 101  0.000000e+00  0.000000e+00 -3.113385e+03  3.113385e+03 0.0 0.0 9.0
 2  1 1 2 103   0  9.040676e+02 -1.249126e+03  1.383043e+03  2.071343e+03 0.0022 0.0 9.0
22  1 1 2   0   0 -9.040676e+02  1.249126e+03 -2.554586e+03  2.983884e+03 0.0 0.0 9.0
#pdf 2 21 2.987449e-01 4.789823e-01 5000.0 2.507368e-01 8.282923e-02
</event>
<event>
4 7 1.0 5000.0 7.905138e-03 7.739137e-02
21 -1 0 0 103 101  0.000000e+00  0.000000e+00  4.215901e+03  4.215901e+03 0.0 0.0 9.0
 2 -1 0 0 101   0  0.000000e+00  0.000000e+00 -1.509325e+03  1.509325e+03 0.0 0.0 9.0
22  1 1 2   0   0 -1.417979e+03 -1.230011e+03 -5.589972e+02  1.958589e+03 0.0 0.0 9.0
 2  1 1 2 103   0  1.417979e+03  1.230011e+03  3.265573e+03  3.766638e+03 0.0022 0.0 9.0
#pdf 21 2 6.486002e-01 2.322039e-01 5000.0 2.838823e-04 8.331466e-02
</event>
<event>
4 7 1.0 5000.0 7.905138e-03 7.739137e-02
21 -1 0 0 103 101  0.000000e+00  0.000000e+00  2.661414e+03  2.661414e+03 0.0 0.0 9.0
 2 -1 0 0 101   0  0.000000e+00  0.000000e+00 -2.350591e+03  2.350591e+03 0.0 0.0 9.0
22  1 1 2   0   0 -2.170752e+03  4.716319e+02  1.307106e+03  2.577426e+03 0.0 0.0 9.0
 2  1 1 2 103   0  2.170752e+03 -4.716319e+02 -9.962824e+02  2.434580e+03 0.0022 0.0 9.0
#pdf 21 2 4.094484e-01 3.616294e-01 5000.0 9.298896e-03 1.690785e-02
</event>
<event>
4 7 1.0 5000.0 7.905138e-03 7.739137e-02
21 -1 0 0 103 101  0.000000e+00  0.000000e+00  4.051325e+03  4.051325e+03 0.0 0.0 9.0
 2 -1 0 0 101   0  0.000000e+00  0.000000e+00 -1.513250e+03  1.513250e+03 0.0 0.0 9.0
22  1 1 2   0   0 -7.734145e+02 -1.441485e+03 -8.195284e+02  1.829665e+03 0.0 0.0 9.0
 2  1 1 2 103   0  7.734145e+02  1.441485e+03  3.357603e+03  3.734909e+03 0.0022 0.0 9.0
#pdf 21 2 6.232807e-01 2.328077e-01 5000.0 4.387815e-04 8.269117e-02
</event>
<event>
4 7 1.0 5000.0 7.905138e-03 7.739137e-02
 2 -1 0 0 101   0  0.000000e+00  0.000000e+00  1.754649e+03  1.754649e+03 0.0 0.0 9.0
21 -1 0 0 103 101  0.000000e+00  0.000000e+00 -3.155588e+03  3.155588e+03 0.0 0.0 9.0
22  1 1 2   0   0  1.658134e+03  3.878821e+02  9.938669e+02  1.971708e+03 0.0 0.0 9.0
 2  1 1 2 103   0 -1.658134e+03 -3.878821e+02 -2.394806e+03  2.938530e+03 0.0022 0.0 9.0
#pdf 2 21 2.699460e-01 4.854751e-01 5000.0 2.872580e-01 7.885685e-02
</event>
<event>
4 7 1.0 5000.0 7.905138e-03 7.739137e-02
 2 -1 0 0 101   0  0.000000e+00  0.000000e+00  1.670531e+03  1.670531e+03 0.0 0.0 9.0
21 -1 0 0 103 101  0.000000e+00  0.000000e+00 -3.925513e+03  3.925513e+03 0.0 0.0 9.0
 2  1 1 2 103   0  1.532468e+03 -1.857359e+03 -2.079686e+03  3.181719e+03 0.0022 0.0 9.0
22  1 1 2   0   0 -1.532468e+03  1.857359e+03 -1.752957e+02  2.414326e+03 0.0 0.0 9.0
#pdf 2 21 2.570048e-01 6.039251e-01 5000.0 3.042599e-01 2.773709e-02
</event>
<event>
4 7 1.0 5000.0 7.905138e-03 7.739137e-02
21 -1 0 0 103 101  0.000000e+00  0.000000e+00  3.817604e+03  3.817604e+03 0.0 0.0 9.0
 2 -1 0 0 101   0  0.000000e+00  0.000000e+00 -1.622200e+03  1.622200e+03 0.0 0.0 9.0
22  1 1 2   0   0 -1.448274e+03  6.818198e+02 -9.848279e+02  1.879431e+03 0.0 0.0 9.0
 2  1 1 2 103   0  1.448274e+03 -6.818198e+02  3.180232e+03  3.560373e+03 0.0022 0.0 9.0
#pdf 21 2 5.873237e-01 2.495692e-01 5000.0 7.844145e-04 6.709082e-02
</event>
<event>
4 7 1.0 5000.0 7.905138e-03 7.739137e-02
 2 -1 0 0 101   0  0.000000e+00  0.000000e+00  1.724107e+03  1.724107e+03 0.0 0.0 9.0
21 -1 0 0 103 101  0.000000e+00  0.000000e+00 -3.520224e+03  3.520224e+03 0.0 0.0 9.0
 2  1 1 2 103   0  1.039983e+03  1.419400e+03  9.371650e+02  1.993625e+03 0.0022 0.0 9.0
22  1 1 2   0   0 -1.039983e+03 -1.419400e+03 -2.733282e+03  3.250706e+03 0.0 0.0 9.0
#pdf 2 21 2.652473e-01 5.415730e-01 5000.0 2.934030e-01 4.991760e-02
</event>
<event>
4 7 1.0 5000.0 7.905138e-03 7.739137e-02
21 -1 0 0 103 101  0.000000e+00  0.000000e+00  1.918672e+03  1.918672e+03 0.0 0.0 9.0
 2 -1 0 0 101   0  0.000000e+00  0.000000e+00 -3.249281e+03  3.249281e+03 0.0 0.0 9.0
22  1 1 2   0   0  4.951065e+02  1.198854e+03 -2.873269e+03  3.152468e+03 0.0 0.0 9.0
 2  1 1 2 103   0 -4.951065e+02 -1.198854e+03  1.542660e+03  2.015485e+03 0.0022 0.0 9.0
#pdf 21 2 2.951803e-01 4.998895e-01 5000.0 3.824813e-02 2.822674e-03
</event>
<event>
4 7 1.0 5000.0 7.905138e-03 7.739137e-02
 2 -1 0 0 101   0  0.000000e+00  0.000000e+00  1.717269e+03  1.717269e+03 0.0 0.0 9.0
21 -1 0 0 103 101  0.000000e+00  0.000000e+00 -3.575381e+03  3.575381e+03 0.0 0.0 9.0
22  1 1 2   0   0  5.841961e+02  1.592561e+03 -2.858040e+03  3.323542e+03 0.0 0.0 9.0
 2  1 1 2 103   0 -5.841961e+02 -1.592561e+03  9.999283e+02  1.969109e+03 0.0022 0.0 9.0
#pdf 2 21 2.641953e-01 5.500587e-01 5000.0 2.947838e-01 4.632044e-02
</event>
<event>
4 7 1.0 5000.0 7.905138e-03 7.739137e-02
 2 -1 0 0 101   0  0.000000e+00  0.000000e+00  3.614626e+03  3.614626e+03 0.0 0.0 9.0
21 -1 0 0 103 101  0.000000e+00  0.000000e+00 -1.705305e+03  1.705305e+03 0.0 0.0 9.0
 2  1 1 2 103   0  8.507244e+02 -2.121455e+03  1.993255e+03  3.032717e+03 0.0022 0.0 9.0
22  1 1 2   0   0 -8.507244e+02  2.121455e+03 -8.393396e+01  2.287214e+03 0.0 0.0 9.0
#pdf 2 21 5.560963e-01 2.623546e-01 5000.0 4.389583e-02 2.972030e-01
</event>
<event>
4 7 1.0 5000.0 7.905138e-03 7.739137e-02
21 -1 0 0 103 101  0.000000e+00  0.000000e+00  2.328174e+03  2.328174e+03 0.0 0.0 9.0
 2 -1 0 0 101   0  0.000000e+00  0.000000e+00 -2.715901e+03  2.715901e+03 0.0 0.0 9.0
22  1 1 2   0   0  1.433878e+03 -2.287252e+02  1.865219e+03  2.363760e+03 0.0 0.0 9.0
 2  1 1 2 103   0 -1.433878e+03  2.287252e+02 -2.252946e+03  2.680315e+03 0.0022 0.0 9.0
#pdf 21 2 3.581806e-01 4.178309e-01 5000.0 1.763741e-02 8.358150e-03
</event>
<event>
4 7 1.0 5000.0 7.905138e-03 7.739137e-02
21 -1 0 0 103 101  0.000000e+00  0.000000e+00  3.827395e+03  3.827395e+03 0.0 0.0 9.0
 2 -1 0 0 101   0  0.000000e+00  0.000000e+00 -1.710119e+03  1.710119e+03 0.0 0.0 9.0
 2  1 1 2 103   0  1.126046e+03  8.941386e+02  3.348737e+03  3.644379e+03 0.0022 0.0 9.0
22  1 1 2   0   0 -1.126046e+03 -8.941386e+02 -1.231460e+03  1.893134e+03 0.0 0.0 9.0
#pdf 21 2 5.888300e-01 2.630952e-01 5000.0 7.660860e-04 5.667675e-02
</event>
<event>
4 7 1.0 5000.0 7.905138e-03 7.739137e-02
 2 -1 0 0 101   0  0.000000e+00  0.000000e+00  2.218216e+03  2.218216e+03 0.0 0.0 9.0
21 -1 0 0 103 101  0.000000e+00  0.000000e+00 -2.850210e+03  2.850210e+03 0.0 0.0 9.0
22  1 1 2   0   0  1.829328e+03  4.086288e+02 -2.005176e+03  2.744841e+03 0.0 0.0 9.0
 2  1 1 2 103   0 -1.829328e+03 -4.086288e+02  1.373182e+03  2.323585e+03 0.0022 0.0 9.0
#pdf 2 21 3.412640e-01 4.384938e-01 5000.0 2.011427e-01 1.107752e-01
</event>
<event>
4 7 1.0 5000.0 7.905138e-03 7.739137e-02
 2 -1 0 0 101   0  0.000000e+00  0.000000e+00  1.486026e+03  1.486026e+03 0.0 0.0 9.0
21 -1 0 0 103 101  0.000000e+00  0.000000e+00 -4.306923e+03  4.306923e+03 0.0 0.0 9.0
22  1 1 2   0   0  2.496650e+03  1.834745e+02 -9.924701e+02  2.692939e+03 0.0 0.0 9.0
 2  1 1 2 103   0 -2.496650e+03 -1.834745e+02 -1.828426e+03  3.100010e+03 0.0022 0.0 9.0
#pdf 2 21 2.286194e-01 6.626035e-01 5000.0 3.426208e-01 1.446154e-02
</event>
<event>
4 7 1.0 5000.0 7.905138e-03 7.739137e-02
21 -1 0 0 103 101  0.000000e+00  0.000000e+00  1.854097e+03  1.854097e+03 0.0 0.0 9.0
 2 -1 0 0 101   0  0.000000e+00  0.000000e+00 -2.958024e+03  2.958024e+03 0.0 0.0 9.0
22  1 1 2   0   0 -9.095120e+02 -9.470560e+01  1.663098e+03  1.897914e+03 0.0 0.0 9.0
 2  1 1 2 103   0  9.095120e+02  9.470560e+01 -2.767025e+03  2.914208e+03 0.0022 0.0 9.0
#pdf 21 2 2.852457e-01 4.550807e-01 5000.0 4.315508e-02 5.162643e-03
</event>
<event>
4 7 1.0 5000.0 7.905138e-03 7.739137e-02
 2 -1 0 0 101   0  0.000000e+00  0.000000e+00  3.964004e+03  3.964004e+03 0.0 0.0 9.0
21 -1 0 0 103 101  0.000000e+00  0.000000e+00 -1.603757e+03  1.603757e+03 0.0 0.0 9.0
22  1 1 2   0   0  2.404873e+03  6.754224e+02  1.558904e+03  2.944451e+03 0.0 0.0 9.0
 2  1 1 2 103   0 -2.404873e+03 -6.754224e+02  8.013435e+02  2.623311e+03 0.0022 0.0 9.0
#pdf 2 21 6.098468e-01 2.467319e-01 5000.0 2.609807e-02 3.180169e-01
</event>
<event>
4 7 1.0 5000.0 7.905138e-03 7.739137e-02
21 -1 0 0 103 101  0.000000e+00  0.000000e+00  1.262278e+03  1.262278e+03 0.0 0.0 9.0
 2 -1 0 0 101   0  0.000000e+00  0.000000e+00 -5.345220e+03  5.345220e+03 0.0 0.0 9.0
 2  1 1 2 103   0  8.575535e+02  1.174813e+03 -4.778698e+03  4.995152e+03 0.0022 0.0 9.0
22  1 1 2   0   0 -8.575535e+02 -1.174813e+03  6.957564e+02  1.612347e+03 0.0 0.0 9.0
#pdf 21 2 1.941967e-01 8.223416e-01 5000.0 1.356802e-01 5.227620e-06
</event>
<event>
4 7 1.0 5000.0 7.905138e-03 7.739137e-02
 2 -1 0 0 101   0  0.000000e+00  0.000000e+00  2.196052e+03  2.196052e+03 0.0 0.0 9.0
21 -1 0 0 103 101  0.000000e+00  0.000000e+00 -2.929625e+03  2.929625e+03 0.0 0.0 9.0
 2  1 1 2 103   0  1.956180e+03 -3.915906e+02 -1.949484e+03  2.789350e+03 0.0022 0.0 9.0
22  1 1 2   0   0 -1.956180e+03  3.915906e+02  1.215911e+03  2.336327e+03 0.0 0.0 9.0
#pdf 2 21 3.378541e-01 4.507116e-01 5000.0 2.049075e-01 1.017521e-01
</event>
<event>
4 7 1.0 5000.0 7.905138e-03 7.739137e-02
21 -1 0 0 103 101  0.000000e+00  0.000000e+00  4.157717e+03  4.157717e+03 0.0 0.0 9.0
 2 -1 0 0 101   0  0.000000e+00  0.000000e+00 -1.673937e+03  1.673937e+03 0.0 0.0 9.0
22  1 1 2   0   0 -8.386195e+02 -1.410731e+03  3.524812e+03  3.888154e+03 0.0 0.0 9.0
 2  1 1 2 103   0  8.386195e+02  1.410731e+03 -1.041032e+03  1.943500e+03 0.0022 0.0 9.0
#pdf 21 2 6.396487e-01 2.575288e-01 5000.0 3.320615e-04 6.076143e-02
</event>
<event>
4 7 1.0 5000.0 7.905138e-03 7.739137e-02
 2 -1 0 0 101   0  0.000000e+00  0.000000e+00  3.877581e+03  3.877581e+03 0.0 0.0 9.0
21 -1 0 0 103 101  0.000000e+00  0.000000e+00 -1.614677e+03  1.614677e+03 0.0 0.0 9.0
 2  1 1 2 103   0 -2.336530e+03 -5.423576e+02  3.496035e+02  2.423994e+03 0.0022 0.0 9.0
22  1 1 2   0   0  2.336530e+03  5.423576e+02  1.913301e+03  3.068264e+03 0.0 0.0 9.0
#pdf 2 21 5.965509e-01 2.484118e-01 5000.0 2.987959e-02 3.157408e-01
</event>
<event>
4 7 1.0 5000.0 7.905138e-03 7.739137e-02
 2 -1 0 0 101   0  0.000000e+00  0.000000e+00  4.877345e+03  4.877345e+03 0.0 0.0 9.0
21 -1 0 0 103 101  0.000000e+00  0.000000e+00 -1.275557e+03  1.275557e+03 0.0 0.0 9.0
 2  1 1 2 103   0 -3.789479e+02 -2.408006e+03  2.452667e+03  3.457986e+03 0.0022 0.0 9.0
22  1 1 2   0   0  3.789479e+02  2.408006e+03  1.149122e+03  2.694916e+03 0.0 0.0 9.0
#pdf 2 21 7.503608e-01 1.962395e-01 5000.0 4.218155e-03 3.872351e-01
</event>
<event>
4 7 1.0 5000.0 7.905138e-03 7.739137e-02
21 -1 0 0 103 101  0.000000e+00  0.000000e+00  2.605521e+03  2.605521e+03 0.0 0.0 9.0
 2 -1 0 0 101   0  0.000000e+00  0.000000e+00 -2.340071e+03  2.340071e+03 0.0 0.0 9.0
22  1 1 2   0   0 -3.223976e+02 -1.619709e+03 -1.705601e+03  2.374125e+03 0.0 0.0 9.0
 2  1 1 2 103   0  3.223976e+02  1.619709e+03  1.971051e+03  2.571466e+03 0.0022 0.0 9.0
#pdf 21 2 4.008494e-01 3.600109e-01 5000.0 1.036838e-02 1.724619e-02
</event>
<event>
4 7 1.0 5000.0 7.905138e-03 7.739137e-02
 2 -1 0 0 101   0  0.000000e+00  0.000000e+00  2.505889e+03  2.505889e+03 0.0 0.0 9.0
21 -1 0 0 103 101  0.000000e+00  0.000000e+00 -2.382365e+03  2.382365e+03 0.0 0.0 9.0
22  1 1 2   0   0 -1.429519e+03  1.827207e+03 -7.051187e+02  2.424748e+03 0.0 0.0 9.0
 2  1 1 2 103   0  1.429519e+03 -1.827207e+03  8.286432e+02  2.463506e+03 0.0022 0.0 9.0
#pdf 2 21 3.855214e-01 3.665177e-01 5000.0 1.558915e-01 1.744748e-01
</event>
<event>
4 7 1.0 5000.0 7.905138e-03 7.739137e-02
 2 -1 0 0 101   0  0.000000e+00  0.000000e+00  1.728825e+03  1.728825e+03 0.0 0.0 9.0
21 -1 0 0 103 101  0.000000e+00  0.000000e+00 -3.060882e+03  3.060882e+03 0.0 0.0 9.0
22  1 1 2   0   0 -1.254045e+03 -1.317752e+03  7.998604e+02  1.987178e+03 0.0 0.0 9.0
 2  1 1 2 103   0  1.254045e+03  1.317752e+03 -2.131917e+03  2.802529e+03 0.0022 0.0 9.0
#pdf 2 21 2.659731e-01 4.709049e-01 5000.0 2.924513e-01 8.796716e-02
</event>
<event>
4 7 1.0 5000.0 7.905138e-03 7.739137e-02
21 -1 0 0 103 101  0.000000e+00  0.000000e+00  3.118641e+03  3.118641e+03 0.0 0.0 9.0
 2 -1 0 0 101   0  0.000000e+00  0.000000e+00 -2.127246e+03  2.127246e+03 0.0 0.0 9.0
 2  1 1 2 103   0 -1.097768e+02  2.209836e+03 -8.470941e+02  2.369175e+03 0.0022 0.0 9.0
22  1 1 2   0   0  1.097768e+02 -2.209836e+03  1.838489e+03  2.876711e+03 0.0 0.0 9.0
#pdf 21 2 4.797909e-01 3.272686e-01 5000.0 3.712859e-03 2.579410e-02
</event>
<event>
4 7 1.0 5000.0 7.905138e-03 7.739137e-02
21 -1 0 0 103 101  0.000000e+00  0.000000e+00  1.668076e+03  1.668076e+03 0.0 0.0 9.0
 2 -1 0 0 101   0  0.000000e+00  0.000000e+00 -3.758128e+03  3.758128e+03 0.0 0.0 9.0
 2  1 1 2 103   0  6.883010e+02  7.711803e+02 -3.516121e+03  3.664912e+03 0.0022 0.0 9.0
22  1 1 2   0   0 -6.883010e+02 -7.711803e+02  1.426068e+03  1.761291e+03 0.0 0.0 9.0
#pdf 21 2 2.566270e-01 5.781736e-01 5000.0 6.145245e-02 9.038428e-04
</event>
<event>
4 7 1.0 5000.0 7.905138e-03 7.739137e-02
 2 -1 0 0 101   0  0.000000e+00  0.000000e+00  3.074438e+03  3.074438e+03 0.0 0.0 9.0
21 -1 0 0 103 101  0.000000e+00  0.000000e+00 -2.066651e+03  2.066651e+03 0.0 0.0 9.0
 2  1 1 2 103   0 -8.054094e+02  2.380203e+03  7.071826e+02  2.610394e+03 0.0022 0.0 9.0
22  1 1 2   0   0  8.054094e+02 -2.380203e+03  3.006042e+02  2.530694e+03 0.0 0.0 9.0
#pdf 2 21 4.729904e-01 3.179463e-01 5000.0 8.662022e-02 2.276506e-01
</event>
<event>
4 7 1.0 5000.0 7.905138e-03 7.739137e-02
21 -1 0 0 103 101  0.000000e+00  0.000000e+00  1.607893e+03  1.607893e+03 0.0 0.0 9.0
 2 -1 0 0 101   0  0.000000e+00  0.000000e+00 -3.966347e+03  3.966347e+03 0.0 0.0 9.0
22  1 1 2   0   0  1.931929e+03  1.318969e+03 -1.290574e+02  2.342794e+03 0.0 0.0 9.0
 2  1 1 2 103   0 -1.931929e+03 -1.318969e+03 -2.229396e+03  3.231445e+03 0.0022 0.0 9.0
#pdf 21 2 2.473681e-01 6.102072e-01 5000.0 6.891697e-02 5.443492e-04
</event>
<event>
4 7 1.0 5000.0 7.905138e-03 7.739137e-02
21 -1 0 0 103 101  0.000000e+00  0.000000e+00  1.539842e+03  1.539842e+03 0.0 0.0 9.0
 2 -1 0 0 101   0  0.000000e+00  0.000000e+00 -4.225680e+03  4.225680e+03 0.0 0.0 9.0
 2  1 1 2 103   0  1.729025e+03  1.728540e+02 -3.453382e+03  3.865909e+03 0.0022 0.0 9.0
22  1 1 2   0   0 -1.729025e+03 -1.728540e+02  7.675445e+02  1.899613e+03 0.0 0.0 9.0
#pdf 21 2 2.368988e-01 6.501046e-01 5000.0 7.859733e-02 2.764988e-04
</event>
<event>
4 7 1.0 5000.0 7.905138e-03 7.739137e-02
 2 -1 0 0 101   0  0.000000e+00  0.000000e+00  2.035575e+03  2.035575e+03 0.0 0.0 9.0
21 -1 0 0 103 101  0.000000e+00  0.000000e+00 -2.939523e+03  2.939523e+03 0.0 0.0 9.0
 2  1 1 2 103   0  2.130922e+03 -5.844558e+02 -1.519118e+03  2.681443e+03 0.0022 0.0 9.0
22  1 1 2   0   0 -2.130922e+03  5.844558e+02  6.151692e+02  2.293655e+03 0.0 0.0 9.0
#pdf 2 21 3.131653e-01 4.522344e-01 5000.0 2.332906e-01 1.006667e-01
</event>
<event>
4 7 1.0 5000.0 7.905138e-03 7.739137e-02
21 -1 0 0 103 101  0.000000e+00  0.000000e+00  3.791530e+03  3.791530e+03 0.0 0.0 9.0
 2 -1 0 0 101   0  0.000000e+00  0.000000e+00 -1.864298e+03  1.864298e+03 0.0 0.0 9.0
22  1 1 2   0   0  2.641431e+03  1.755182e+01  6.426180e+02  2.718533e+03 0.0 0.0 9.0
 2  1 1 2 103   0 -2.641431e+03 -1.755182e+01  1.284614e+03  2.937294e+03 0.0022 0.0 9.0
#pdf 21 2 5.833122e-01 2.868150e-01 5000.0 8.349558e-04 4.234064e-02
</event>
<event>
4 7 1.0 5000.0 7.905138e-03 7.739137e-02
21 -1 0 0 103 101  0.000000e+00  0.000000e+00  1.953060e+03  1.953060e+03 0.0 0.0 9.0
 2 -1 0 0 101   0  0.000000e+00  0.000000e+00 -3.012074e+03  3.012074e+03 0.0 0.0 9.0
 2  1 1 2 103   0 -5.738255e+02 -2.238427e+03  2.246858e+02  2.321705e+03 0.0022 0.0 9.0
22  1 1 2   0   0  5.738255e+02  2.238427e+03 -1.283700e+03  2.643429e+03 0.0 0.0 9.0
#pdf 21 2 3.004707e-01 4.633960e-01 5000.0 3.580341e-02 4.622433e-03
</event>
<event>
4 7 1.0 5000.0 7.905138e-03 7.739137e-02
 2 -1 0 0 101   0  0.000000e+00  0.000000e+00  4.049555e+03  4.049555e+03 0.0 0.0 9.0
21 -1 0 0 103 101  0.000000e+00  0.000000e+00 -1.500973e+03  1.500973e+03 0.0 0.0 9.0
22  1 1 2   0   0  2.063574e+03  9.445224e+02  1.900045e+02  2.277403e+03 0.0 0.0 9.0
 2  1 1 2 103   0 -2.063574e+03 -9.445224e+02  2.358578e+03  3.273126e+03 0.0022 0.0 9.0
#pdf 2 21 6.230085e-01 2.309189e-01 5000.0 2.270975e-02 3.394694e-01
</event>
<event>
4 7 1.0 5000.0 7.905138e-03 7.739137e-02
 2 -1 0 0 101   0  0.000000e+00  0.000000e+00  1.889558e+03  1.889558e+03 0.0 0.0 9.0
21 -1 0 0 103 101  0.000000e+00  0.000000e+00 -3.293421e+03  3.293421e+03 0.0 0.0 9.0
 2  1 1 2 103   0  1.913302e+03 -9.752376e+02  6.167311e+02  2.234316e+03 0.0022 0.0 9.0
22  1 1 2   0   0 -1.913302e+03  9.752376e+02 -2.020594e+03  2.948663e+03 0.0 0.0 9.0
#pdf 2 21 2.907012e-01 5.066802e-01 5000.0 2.607174e-01 6.681095e-02
</event>
<event>
4 7 1.0 5000.0 7.905138e-03 7.739137e-02
 2 -1 0 0 101   0  0.000000e+00  0.000000e+00  3.519730e+03  3.519730e+03 0.0 0.0 9.0
21 -1 0 0 103 101  0.000000e+00  0.000000e+00 -1.580577e+03  1.580577e+03 0.0 0.0 9.0
22  1 1 2   0   0 -5.280924e+02 -1.936430e+03 -3.697784e+02  2.040926e+03 0.0 0.0 9.0
 2  1 1 2 103   0  5.280924e+02  1.936430e+03  2.308932e+03  3.059381e+03 0.0022 0.0 9.0
#pdf 2 21 5.414970e-01 2.431656e-01 5000.0 4.995054e-02 3.228011e-01
</event>
<event>
4 7 1.0 5000.0 7.905138e-03 7.739137e-02
21 -1 0 0 103 101  0.000000e+00  0.000000e+00  1.933256e+03  1.933256e+03 0.0 0.0 9.0
 2 -1 0 0 101   0  0.000000e+00  0.000000e+00 -3.348317e+03  3.348317e+03 0.0 0.0 9.0
22  1 1 2   0   0  1.327838e+03 -7.308203e+02 -2.828578e+03  3.209066e+03 0.0 0.0 9.0
 2  1 1 2 103   0 -1.327838e+03  7.308203e+02  1.413517e+03  2.072507e+03 0.0022 0.0 9.0
#pdf 21 2 2.974240e-01 5.151257e-01 5000.0 3.719960e-02 2.283756e-03
</event>
<event>
4 7 1.0 5000.0 7.905138e-03 7.739137e-02
 2 -1 0 0 101   0  0.000000e+00  0.000000e+00  3.359040e+03  3.359040e+03 0.0 0.0 9.0
21 -1 0 0 103 101  0.000000e+00  0.000000e+00 -1.872904e+03  1.872904e+03 0.0 0.0 9.0
22  1 1 2   0   0 -1.844720e+03 -1.472900e+03  1.627270e+03  2.867130e+03 0.0 0.0 9.0
 2  1 1 2 103   0  1.844720e+03  1.472900e+03 -1.411345e+02  2.364814e+03 0.0022 0.0 9.0
#pdf 2 21 5.167754e-01 2.881391e-01 5000.0 6.156025e-02 2.639408e-01
</event>
<event>
4 7 1.0 5000.0 7.905138e-03 7.739137e-02
21 -1 0 0 103 101  0.000000e+00  0.000000e+00  3.367828e+03  3.367828e+03 0.0 0.0 9.0
 2 -1 0 0 101   0  0.000000e+00  0.000000e+00 -1.849381e+03  1.849381e+03 0.0 0.0 9.0
 2  1 1 2 103   0  9.628682e+01  2.354766e+03 -9.902987e+01  2.358813e+03 0.0022 0.0 9.0
22  1 1 2   0   0 -9.628682e+01 -2.354766e+03  1.617477e+03  2.858395e+03 0.0 0.0 9.0
#pdf 21 2 5.181274e-01 2.845201e-01 5000.0 2.188910e-03 4.353812e-02
</event>
<event>
4 7 1.0 5000.0 7.905138e-03 7.739137e-02
 2 -1 0 0 101   0  0.000000e+00  0.000000e+00  2.266053e+03  2.266053e+03 0.0 0.0 9.0
21 -1 0 0 103 101  0.000000e+00  0.000000e+00 -2.788681e+03  2.788681e+03 0.0 0.0 9.0
22  1 1 2   0   0  7.824722e+02  6.011417e+02 -2.585842e+03  2.767709e+03 0.0 0.0 9.0
 2  1 1 2 103   0 -7.824722e+02 -6.011417e+02  2.063213e+03  2.287025e+03 0.0022 0.0 9.0
#pdf 2 21 3.486235e-01 4.290279e-01 5000.0 1.931441e-01 1.180991e-01
</event>
<event>
4 7 1.0 5000.0 7.905138e-03 7.739137e-02
21 -1 0 0 103 101  0.000000e+00  0.000000e+00  1.775799e+03  1.775799e+03 0.0 0.0 9.0
 2 -1 0 0 101   0  0.000000e+00  0.000000e+00 -3.551818e+03  3.551818e+03 0.0 0.0 9.0
 2  1 1 2 103   0  2.961109e+02  2.308244e+03  1.135482e+02  2.329928e+03 0.0022 0.0 9.0
22  1 1 2   0   0 -2.961109e+02 -2.308244e+03 -1.889568e+03  2.997689e+03 0.0 0.0 9.0
#pdf 21 2 2.731998e-01 5.464336e-01 5000.0 5.003816e-02 1.457148e-03
</event>
<event>
4 7 1.0 5000.0 7.905138e-03 7.739137e-02
 2 -1 0 0 101   0  0.000000e+00  0.000000e+00  2.587483e+03  2.587483e+03 0.0 0.0 9.0
21 -1 0 0 103 101  0.000000e+00  0.000000e+00 -2.454329e+03  2.454329e+03 0.0 0.0 9.0
22  1 1 2   0   0  2.016121e+03 -2.688879e+02  1.554877e+03  2.560212e+03 0.0 0.0 9.0
 2  1 1 2 103   0 -2.016121e+03  2.688879e+02 -1.421723e+03  2.481600e+03 0.0022 0.0 9.0
#pdf 2 21 3.980744e-01 3.775891e-01 5000.0 1.443067e-01 1.634955e-01
</event>
<event>
4 7 1.0 5000.0 7.905138e-03 7.739137e-02
21 -1 0 0 103 101  0.000000e+00  0.000000e+00  2.700249e+03  2.700249e+03 0.0 0.0 9.0
 2 -1 0 0 101   0  0.000000e+00  0.000000e+00 -2.326985e+03  2.326985e+03 0.0 0.0 9.0
22  1 1 2   0   0 -9.577820e+02  3.719791e+02  2.479382e+03  2.683850e+03 0.0 0.0 9.0
 2  1 1 2 103   0  9.577820e+02 -3.719791e+02 -2.106119e+03  2.343384e+03 0.0022 0.0 9.0
#pdf 21 2 4.154229e-01 3.579978e-01 5000.0 8.618210e-03 1.767707e-02
</event>
<event>
4 7 1.0 5000.0 7.905138e-03 7.739137e-02
21 -1 0 0 103 101  0.000000e+00  0.000000e+00  2.980857e+03  2.980857e+03 0.0 0.0 9.0
 2 -1 0 0 101   0  0.000000e+00  0.000000e+00 -2.130433e+03  2.130433e+03 0.0 0.0 9.0
 2  1 1 2 103   0 -3.992505e+02  1.789309e+03 -1.328243e+03  2.263903e+03 0.0022 0.0 9.0
22  1 1 2   0   0  3.992505e+02 -1.789309e+03  2.178667e+03  2.847388e+03 0.0 0.0 9.0
#pdf 21 2 4.585934e-01 3.277590e-01 5000.0 4.927024e-03 2.563985e-02
</event>
<event>
4 7 1.0 5000.0 7.905138e-03 7.739137e-02
21 -1 0 0 103 101  0.000000e+00  0.000000e+00  3.500948e+03  3.500948e+03 0.0 0.0 9.0
 2 -1 0 0 101   0  0.000000e+00  0.000000e+00 -1.810992e+03  1.810992e+03 0.0 0.0 9.0
 2  1 1 2 103   0 -3.874426e+02  2.044913e+03  2.339830e+03  3.131546e+03 0.0022 0.0 9.0
22  1 1 2   0   0  3.874426e+02 -2.044913e+03 -6.498730e+02  2.180393e+03 0.0 0.0 9.0
#pdf 21 2 5.386074e-01 2.786141e-01 5000.0 1.632405e-03 4.681694e-02
</event>
<event>
4 7 1.0 5000.0 7.905138e-03 7.739137e-02
 2 -1 0 0 101   0  0.000000e+00  0.000000e+00  1.841310e+03  1.841310e+03 0.0 0.0 9.0
21 -1 0 0 103 101  0.000000e+00  0.000000e+00 -3.374473e+03  3.374473e+03 0.0 0.0 9.0
22  1 1 2   0   0  2.140185e+03  5.747604e+02 -1.960698e+03  2.958898e+03 0.0 0.0 9.0
 2  1 1 2 103   0 -2.140185e+03 -5.747604e+02  4.275352e+02  2.256885e+03 0.0022 0.0 9.0
#pdf 2 21 2.832785e-01 5.191497e-01 5000.0 2.700971e-01 6.036965e-02
</event>
<event>
4 7 1.0 5000.0 7.905138e-03 7.739137e-02
21 -1 0 0 103 101  0.000000e+00  0.000000e+00  1.143336e+03  1.143336e+03 0.0 0.0 9.0
 2 -1 0 0 101   0  0.000000e+00  0.000000e+00 -5.472325e+03  5.472325e+03 0.0 0.0 9.0
 2  1 1 2 103   0  2.768237e+02  1.055813e+03  8.117896e+02  1.360284e+03 0.0022 0.0 9.0
22  1 1 2   0   0 -2.768237e+02 -1.055813e+03 -5.140779e+03  5.255376e+03 0.0 0.0 9.0
#pdf 21 2 1.758978e-01 8.418961e-01 5000.0 1.733552e-01 2.747236e-06
</event>
<event>
4 7 1.0 5000.0 7.905138e-03 7.739137e-02
 2 -1 0 0 101   0  0.000000e+00  0.000000e+00  1.655512e+03  1.655512e+03 0.0 0.0 9.0
21 -1 0 0 103 101  0.000000e+00  0.000000e+00 -3.836311e+03  3.836311e+03 0.0 0.0 9.0
 2  1 1 2 103   0  5.425755e+02  1.239265e+03  1.226331e+03  1.825939e+03 0.0022 0.0 9.0
22  1 1 2   0   0 -5.425755e+02 -1.239265e+03 -3.407130e+03  3.665884e+03 0.0 0.0 9.0
#pdf 2 21 2.546941e-01 5.902017e-01 5000.0 3.073254e-01 3.182133e-02
</event>
<event>
4 7 1.0 5000.0 7.905138e-03 7.739137e-02
 2 -1 0 0 101   0  0.000000e+00  0.000000e+00  1.536331e+03  1.536331e+03 0.0 0.0 9.0
21 -1 0 0 103 101  0.000000e+00  0.000000e+00 -3.335093e+03  3.335093e+03 0.0 0.0 9.0
 2  1 1 2 103   0  5.682666e+02 -1.401021e+03  9.133666e+02  1.766360e+03 0.0022 0.0 9.0
22  1 1 2   0   0 -5.682666e+02  1.401021e+03 -2.712128e+03  3.105064e+03 0.0 0.0 9.0
#pdf 2 21 2.363587e-01 5.130912e-01 5000.0 3.320203e-01 6.344118e-02
</event>
<event>
4 7 1.0 5000.0 7.905138e-03 7.739137e-02
 2 -1 0 0 101   0  0.000000e+00  0.000000e+00  2.959272e+03  2.959272e+03 0.0 0.0 9.0
21 -1 0 0 103 101  0.000000e+00  0.000000e+00 -2.102528e+03  2.102528e+03 0.0 0.0 9.0
 2  1 1 2 103   0 -2.324804e+03  5.221231e+02 -3.204208e+02  2.404162e+03 0.0022 0.0 9.0
22  1 1 2   0   0  2.324804e+03 -5.221231e+02  1.177165e+03  2.657638e+03 0.0 0.0 9.0
#pdf 2 21 4.552726e-01 3.234658e-01 5000.0 9.851844e-02 2.212199e-01
</event>
<event>
4 7 1.0 5000.0 7.905138e-03 7.739137e-02
 2 -1 0 0 101   0  0.000000e+00  0.000000e+00  3.357025e+03  3.357025e+03 0.0 0.0 9.0
21 -1 0 0 103 101  0.000000e+00  0.000000e+00 -1.904436e+03  1.904436e+03 0.0 0.0 9.0
22  1 1 2   0   0  3.023006e+02  2.451479e+03  1.288615e+03  2.785977e+03 0.0 0.0 9.0
 2  1 1 2 103   0 -3.023006e+02 -2.451479e+03  1.639739e+02  2.475485e+03 0.0022 0.0 9.0
#pdf 2 21 5.164654e-01 2.929902e-01 5000.0 6.171696e-02 2.578540e-01
</event>
<event>
4 7 1.0 5000.0 7.905138e-03 7.739137e-02
21 -1 0 0 103 101  0.000000e+00  0.000000e+00  1.839690e+03  1.839690e+03 0.0 0.0 9.0
 2 -1 0 0 101   0  0.000000e+00  0.000000e+00 -3.461482e+03  3.461482e+03 0.0 0.0 9.0
22  1 1 2   0   0 -1.987768e+03  3.714185e+02  7.747238e+02  2.165496e+03 0.0 0.0 9.0
 2  1 1 2 103   0  1.987768e+03 -3.714185e+02 -2.396516e+03  3.135676e+03 0.0022 0.0 9.0
#pdf 21 2 2.830292e-01 5.325357e-01 5000.0 4.433899e-02 1.783861e-03
</event>
<event>
4 7 1.0 5000.0 7.905138e-03 7.739137e-02
 2 -1 0 0 101   0  0.000000e+00  0.000000e+00  3.619488e+03  3.619488e+03 0.0 0.0 9.0
21 -1 0 0 103 101  0.000000e+00  0.000000e+00 -1.632892e+03  1.632892e+03 0.0 0.0 9.0
 2  1 1 2 103   0 -2.580229e+02  1.871084e+03  2.646715e+03  3.251558e+03 0.0022 0.0 9.0
22  1 1 2   0   0  2.580229e+02 -1.871084e+03 -6.601182e+02  2.000822e+03 0.0 0.0 9.0
#pdf 2 21 5.568444e-01 2.512141e-01 5000.0 4.360252e-02 3.119700e-01
</event>
<event>
4 7 1.0 5000.0 7.905138e-03 7.739137e-02
 2 -1 0 0 101   0  0.000000e+00  0.000000e+00  1.891317e+03  1.891317e+03 0.0 0.0 9.0
21 -1 0 0 103 101  0.000000e+00  0.000000e+00 -3.251254e+03  3.251254e+03 0.0 0.0 9.0
22  1 1 2   0   0 -1.650999e+03 -1.816666e+03 -3.161906e+02  2.475086e+03 0.0 0.0 9.0
 2  1 1 2 103   0  1.650999e+03  1.816666e+03 -1.043746e+03  2.667485e+03 0.0022 0.0 9.0
#pdf 2 21 2.909718e-01 5.001929e-01 5000.0 2.603781e-01 7.034734e-02
</event>
<event>
4 7 1.0 5000.0 7.905138e-03 7.739137e-02
21 -1 0 0 103 101  0.000000e+00  0.000000e+00  3.173113e+03  3.173113e+03 0.0 0.0 9.0
 2 -1 0 0 101   0  0.000000e+00  0.000000e+00 -2.125358e+03  2.125358e+03 0.0 0.0 9.0
 2  1 1 2 103   0  1.775353e+03  1.874156e+03  8.118081e+02  2.706173e+03 0.0022 0.0 9.0
22  1 1 2   0   0 -1.775353e+03 -1.874156e+03  2.359464e+02  2.592298e+03 0.0 0.0 9.0
#pdf 21 2 4.881712e-01 3.269782e-01 5000.0 3.313747e-03 2.588586e-02
</event>
<event>
4 7 1.0 5000.0 7.905138e-03 7.739137e-02
 2 -1 0 0 101   0  0.000000e+00  0.000000e+00  1.727473e+03  1.727473e+03 0.0 0.0 9.0
21 -1 0 0 103 101  0.000000e+00  0.000000e+00 -3.595573e+03  3.595573e+03 0.0 0.0 9.0
 2  1 1 2 103   0 -1.786780e+02 -2.351999e+03 -1.793333e+03  2.963084e+03 0.0022 0.0 9.0
22  1 1 2   0   0  1.786780e+02  2.351999e+03 -7.476737e+01  2.359961e+03 0.0 0.0 9.0
#pdf 2 21 2.657650e-01 5.531651e-01 5000.0 2.927241e-01 4.505456e-02
</event>
<event>
4 7 1.0 5000.0 7.905138e-03 7.739137e-02
 2 -1 0 0 101   0  0.000000e+00  0.000000e+00  1.512617e+03  1.512617e+03 0.0 0.0 9.0
21 -1 0 0 103 101  0.000000e+00  0.000000e+00 -4.040552e+03  4.040552e+03 0.0 0.0 9.0
22  1 1 2   0   0 -9.280439e+02  1.730487e+03 -2.950876e+03  3.544506e+03 0.0 0.0 9.0
 2  1 1 2 103   0  9.280439e+02 -1.730487e+03  4.229405e+02  2.008664e+03 0.0022 0.0 9.0
#pdf 2 21 2.327103e-01 6.216234e-01 5000.0 3.370133e-01 2.305023e-02
</event>
<event>
4 7 1.0 5000.0 7.905138e-03 7.739137e-02
 2 -1 0 0 101   0  0.000000e+00  0.000000e+00  4.010804e+03  4.010804e+03 0.0 0.0 9.0
21 -1 0 0 103 101  0.000000e+00  0.000000e+00 -1.553177e+03  1.553177e+03 0.0 0.0 9.0
 2  1 1 2 103   0  4.362254e+02 -5.369523e+02 -1.444172e+03  1.601325e+03 0.0022 0.0 9.0
22  1 1 2   0   0 -4.362254e+02  5.369523e+02  3.901799e+03  3.962656e+03 0.0 0.0 9.0
#pdf 2 21 6.170468e-01 2.389504e-01 5000.0 2.420171e-02 3.284907e-01
</event>
<event>
4 7 1.0 5000.0 7.905138e-03 7.739137e-02
21 -1 0 0 103 101  0.000000e+00  0.000000e+00  1.316413e+03  1.316413e+03 0.0 0.0 9.0
 2 -1 0 0 101   0  0.000000e+00  0.000000e+00 -4.548219e+03  4.548219e+03 0.0 0.0 9.0
 2  1 1 2 103   0 -8.387663e+02  5.004491e+02 -4.304483e+03  4.413904e+03 0.0022 0.0 9.0
22  1 1 2   0   0  8.387663e+02 -5.004491e+02  1.072676e+03  1.450728e+03 0.0 0.0 9.0
#pdf 21 2 2.025251e-01 6.997261e-01 5000.0 1.217199e-01 1.087968e-04
</event>
<event>
4 7 1.0 5000.0 7.905138e-03 7.739137e-02
21 -1 0 0 103 101  0.000000e+00  0.000000e+00  1.888222e+03  1.888222e+03 0.0 0.0 9.0
 2 -1 0 0 101   0  0.000000e+00  0.000000e+00 -3.366136e+03  3.366136e+03 0.0 0.0 9.0
22  1 1 2   0   0 -7.427176e+01 -1.052018e+03 -3.125220e+03  3.298372e+03 0.0 0.0 9.0
 2  1 1 2 103   0  7.427176e+01  1.052018e+03  1.647307e+03  1.955985e+03 0.0022 0.0 9.0
#pdf 21 2 2.904957e-01 5.178670e-01 5000.0 4.049544e-02 2.197007e-03
</event>
<event>
4 7 1.0 5000.0 7.905138e-03 7.739137e-02
 2 -1 0 0 101   0  0.000000e+00  0.000000e+00  1.658870e+03  1.658870e+03 0.0 0.0 9.0
21 -1 0 0 103 101  0.000000e+00  0.000000e+00 -3.815012e+03  3.815012e+03 0.0 0.0 9.0
22  1 1 2   0   0 -9.255304e+02  2.259569e+03 -1.736575e+03  2.996323e+03 0.0 0.0 9.0
 2  1 1 2 103   0  9.255304e+02 -2.259569e+03 -4.195670e+02  2.477558e+03 0.0022 0.0 9.0
#pdf 2 21 2.552107e-01 5.869249e-01 5000.0 3.066389e-01 3.285984e-02
</event>
<event>
4 7 1.0 5000.0 7.905138e-03 7.739137e-02
21 -1 0 0 103 101  0.000000e+00  0.000000e+00  1.324252e+03  1.324252e+03 0.0 0.0 9.0
 2 -1 0 0 101   0  0.000000e+00  0.000000e+00 -4.621591e+03  4.621591e+03 0.0 0.0 9.0
 2  1 1 2 103   0 -1.887695e+03  6.798693e+02  9.051769e+01  2.008435e+03 0.0022 0.0 9.0
22  1 1 2   0   0  1.887695e+03 -6.798693e+02 -3.387856e+03  3.937409e+03 0.0 0.0 9.0
#pdf 21 2 2.037311e-01 7.110140e-01 5000.0 1.198078e-01 8.653850e-05
</event>
<event>
4 7 1.0 5000.0 7.905138e-03 7.739137e-02
21 -1 0 0 103 101  0.000000e+00  0.000000e+00  4.474400e+03  4.474400e+03 0.0 0.0 9.0
 2 -1 0 0 101   0  0.000000e+00  0.000000e+00 -1.422041e+03  1.422041e+03 0.0 0.0 9.0
 2  1 1 2 103   0 -1.907136e+03 -4.699043e+02 -3.236145e+02  1.990654e+03 0.0022 0.0 9.0
22  1 1 2   0   0  1.907136e+03  4.699043e+02  3.375974e+03  3.905788e+03 0.0 0.0 9.0
#pdf 21 2 6.883693e-01 2.187756e-01 5000.0 1.362393e-04 9.881460e-02
</event>
<event>
4 7 1.0 5000.0 7.905138e-03 7.739137e-02
21 -1 0 0 103 101  0.000000e+00  0.000000e+00  2.043373e+03  2.043373e+03 0.0 0.0 9.0
 2 -1 0 0 101   0  0.000000e+00  0.000000e+00 -3.095908e+03  3.095908e+03 0.0 0.0 9.0
 2  1 1 2 103   0  9.850508e+02 -2.298344e+03 -2.495048e+02  2.512959e+03 0.0022 0.0 9.0
22  1 1 2   0   0 -9.850508e+02  2.298344e+03 -8.030300e+02  2.626322e+03 0.0 0.0 9.0
#pdf 21 2 3.143651e-01 4.762936e-01 5000.0 3.021789e-02 3.892421e-03
</event>
<event>
4 7 1.0 5000.0 7.905138e-03 7.739137e-02
21 -1 0 0 103 101  0.000000e+00  0.000000e+00  3.173473e+03  3.173473e+03 0.0 0.0 9.0
 2 -1 0 0 101   0  0.000000e+00  0.000000e+00 -1.853312e+03  1.853312e+03 0.0 0.0 9.0
22  1 1 2   0   0 -5.012341e+02  2.188416e+03  1.610523e+03  2.763003e+03 0.0 0.0 9.0
 2  1 1 2 103   0  5.012341e+02 -2.188416e+03 -2.903624e+02  2.263782e+03 0.0022 0.0 9.0
#pdf 21 2 4.882266e-01 2.851249e-01 5000.0 3.311255e-03 4.321855e-02
</event>
<event>
4 7 1.0 5000.0 7.905138e-03 7.739137e-02
21 -1 0 0 103 101  0.000000e+00  0.000000e+00  1.990733e+03  1.990733e+03 0.0 0.0 9.0
 2 -1 0 0 101   0  0.000000e+00  0.000000e+00 -2.965359e+03  2.965359e+03 0.0 0.0 9.0
22  1 1 2   0   0  2.252140e+03 -2.981444e+02  3.913631e+02  2.305253e+03 0.0 0.0 9.0
 2  1 1 2 103   0 -2.252140e+03  2.981444e+02 -1.365988e+03  2.650839e+03 0.0022 0.0 9.0
#pdf 21 2 3.062667e-01 4.562090e-01 5000.0 3.339322e-02 5.085948e-03
</event>
<event>
4 7 1.0 5000.0 7.905138e-03 7.739137e-02
21 -1 0 0 103 101  0.000000e+00  0.000000e+00  1.589369e+03  1.589369e+03 0.0 0.0 9.0
 2 -1 0 0 101   0  0.000000e+00  0.000000e+00 -3.940638e+03  3.940638e+03 0.0 0.0 9.0
22  1 1 2   0   0  1.753012e+03 -2.013080e+01 -3.148843e+03  3.603980e+03 0.0 0.0 9.0
 2  1 1 2 103   0 -1.753012e+03  2.013080e+01  7.975744e+02  1.926027e+03 0.0022 0.0 9.0
#pdf 21 2 2.445183e-01 6.062520e-01 5000.0 7.140270e-02 5.806484e-04
</event>
<event>
4 7 1.0 5000.0 7.905138e-03 7.739137e-02
21 -1 0 0 103 101  0.000000e+00  0.000000e+00  1.731648e+03  1.731648e+03 0.0 0.0 9.0
 2 -1 0 0 101   0  0.000000e+00  0.000000e+00 -3.668664e+03  3.668664e+03 0.0 0.0 9.0
22  1 1 2   0   0 -9.886826e+02  9.636896e+02  1.290519e+03  1.889875e+03 0.0 0.0 9.0
 2  1 1 2 103   0  9.886826e+02 -9.636896e+02 -3.227534e+03  3.510437e+03 0.0022 0.0 9.0
#pdf 21 2 2.664075e-01 5.644099e-01 5000.0 5.440102e-02 1.116540e-03
</event>
<event>
4 7 1.0 5000.0 7.905138e-03 7.739137e-02
21 -1 0 0 103 101  0.000000e+00  0.000000e+00  1.836849e+03  1.836849e+03 0.0 0.0 9.0
 2 -1 0 0 101   0  0.000000e+00  0.000000e+00 -3.153775e+03  3.153775e+03 0.0 0.0 9.0
 2  1 1 2 103   0 -1.318654e+03  1.910767e+03 -1.316718e+03  2.669012e+03 0.0022 0.0 9.0
22  1 1 2   0   0  1.318654e+03 -1.910767e+03 -2.085907e-01  2.321612e+03 0.0 0.0 9.0
#pdf 21 2 2.825921e-01 4.851962e-01 5000.0 4.457750e-02 3.450257e-03
</event>
<event>
4 7 1.0 5000.0 7.905138e-03 7.739137e-02
 2 -1 0 0 101   0  0.000000e+00  0.000000e+00  2.492820e+03  2.492820e+03 0.0 0.0 9.0
21 -1 0 0 103 101  0.000000e+00  0.000000e+00 -2.468318e+03  2.468318e+03 0.0 0.0 9.0
 2  1 1 2 103   0 -8.867348e+02 -2.007469e+03 -1.143982e+03  2.474859e+03 0.0022 0.0 9.0
22  1 1 2   0   0  8.867348e+02  2.007469e+03  1.168484e+03  2.486280e+03 0.0 0.0 9.0
#pdf 2 21 3.835108e-01 3.797413e-01 5000.0 1.577985e-01 1.614115e-01
</event>
<event>
4 7 1.0 5000.0 7.905138e-03 7.739137e-02
 2 -1 0 0 101   0  0.000000e+00  0.000000e+00  1.438654e+03  1.438654e+03 0.0 0.0 9.0
21 -1 0 0 103 101  0.000000e+00  0.000000e+00 -4.425542e+03  4.425542e+03 0.0 0.0 9.0
22  1 1 2   0   0 -2.213232e+03  9.673420e+02 -2.341546e+03  3.364073e+03 0.0 0.0 9.0
 2  1 1 2 103   0  2.213232e+03 -9.673420e+02 -6.453417e+02  2.500123e+03 0.0022 0.0 9.0
#pdf 2 21 2.213314e-01 6.808526e-01 5000.0 3.525883e-01 1.152425e-02
</event>
<event>
4 7 1.0 5000.0 7.905138e-03 7.739137e-02
 2 -1 0 0 101   0  0.000000e+00  0.000000e+00  3.082253e+03  3.082253e+03 0.0 0.0 9.0
21 -1 0 0 103 101  0.000000e+00  0.000000e+00 -1.540217e+03  1.540217e+03 0.0 0.0 9.0
 2  1 1 2 103   0  3.316649e+02  6.881818e+02  2.935535e+03  3.033308e+03 0.0022 0.0 9.0
22  1 1 2   0   0 -3.316649e+02 -6.881818e+02 -1.393499e+03  1.589162e+03 0.0 0.0 9.0
#pdf 2 21 4.741928e-01 2.369565e-01 5000.0 8.584998e-02 3.312045e-01
</event>
<event>
4 7 1.0 5000.0 7.905138e-03 7.739137e-02
21 -1 0 0 103 101  0.000000e+00  0.000000e+00  3.314397e+03  3.314397e+03 0.0 0.0 9.0
 2 -1 0 0 101   0  0.000000e+00  0.000000e+00 -1.891172e+03  1.891172e+03 0.0 0.0 9.0
 2  1 1 2 103   0 -6.098168e+02  3.884318e+02 -1.780274e+03  1.921492e+03 0.0022 0.0 9.0
22  1 1 2   0   0  6.098168e+02 -3.884318e+02  3.203500e+03  3.284077e+03 0.0 0.0 9.0
#pdf 21 2 5.099073e-01 2.909496e-01 5000.0 2.456607e-03 4.027337e-02
</event>
<event>
4 7 1.0 5000.0 7.905138e-03 7.739137e-02
21 -1 0 0 103 101  0.000000e+00  0.000000e+00  2.188631e+03  2.188631e+03 0.0 0.0 9.0
 2 -1 0 0 101   0  0.000000e+00  0.000000e+00 -2.814414e+03  2.814414e+03 0.0 0.0 9.0
22  1 1 2   0   0 -5.121371e+02 -2.297789e+03  4.792002e+02  2.402447e+03 0.0 0.0 9.0
 2  1 1 2 103   0  5.121371e+02  2.297789e+03 -1.104983e+03  2.600597e+03 0.0022 0.0 9.0
#pdf 21 2 3.367124e-01 4.329867e-01 5000.0 2.297165e-02 6.883295e-03
</event>
<event>
4 7 1.0 5000.0 7.905138e-03 7.739137e-02
 2 -1 0 0 101   0  0.000000e+00  0.000000e+00  4.219612e+03  4.219612e+03 0.0 0.0 9.0
21 -1 0 0 103 101  0.000000e+00  0.000000e+00 -1.470064e+03  1.470064e+03 0.0 0.0 9.0
22  1 1 2   0   0 -1.636957e+03 -1.572487e+03  2.039154e+02  2.279018e+03 0.0 0.0 9.0
 2  1 1 2 103   0  1.636957e+03  1.572487e+03  2.545633e+03  3.410658e+03 0.0022 0.0 9.0
#pdf 2 21 6.491711e-01 2.261637e-01 5000.0 1.695490e-02 3.459792e-01
</event>
<event>
4 7 1.0 5000.0 7.905138e-03 7.739137e-02
 2 -1 0 0 101   0  0.000000e+00  0.000000e+00  3.359695e+03  3.359695e+03 0.0 0.0 9.0
21 -1 0 0 103 101  0.000000e+00  0.000000e+00 -1.781750e+03  1.781750e+03 0.0 0.0 9.0
22  1 1 2   0   0 -1.898091e+03  1.086474e+03  1.941384e+03  2.924405e+03 0.0 0.0 9.0
 2  1 1 2 103   0  1.898091e+03 -1.086474e+03 -3.634394e+02  2.217039e+03 0.0022 0.0 9.0
#pdf 2 21 5.168761e-01 2.741154e-01 5000.0 6.150939e-02 2.818424e-01
</event>
<event>
4 7 1.0 5000.0 7.905138e-03 7.739137e-02
 2 -1 0 0 101   0  0.000000e+00  0.000000e+00  2.712227e+03  2.712227e+03 0.0 0.0 9.0
21 -1 0 0 103 101  0.000000e+00  0.000000e+00 -2.376643e+03  2.376643e+03 0.0 0.0 9.0
22  1 1 2   0   0  1.885964e+03 -2.406010e+02  1.854093e+03  2.655638e+03 0.0 0.0 9.0
 2  1 1 2 103   0 -1.885964e+03  2.406010e+02 -1.518509e+03  2.433232e+03 0.0022 0.0 9.0
#pdf 2 21 4.172657e-01 3.656373e-01 5000.0 1.276565e-01 1.753680e-01
</event>
<event>
4 7 1.0 5000.0 7.905138e-03 7.739137e-02
 2 -1 0 0 101   0  0.000000e+00  0.000000e+00  3.649206e+03  3.649206e+03 0.0 0.0 9.0
21 -1 0 0 103 101  0.000000e+00  0.000000e+00 -1.733653e+03  1.733653e+03 0.0 0.0 9.0
22  1 1 2   0   0 -7.742990e+02 -3.011499e+02 -1.582594e+03  1.787410e+03 0.0 0.0 9.0
 2  1 1 2 103   0  7.742990e+02  3.011499e+02  3.498147e+03  3.595450e+03 0.0022 0.0 9.0
#pdf 2 21 5.614163e-01 2.667159e-01 5000.0 4.183049e-02 2.914782e-01
</event>
<event>
4 7 1.0 5000.0 7.905138e-03 7.739137e-02
 2 -1 0 0 101   0  0.000000e+00  0.000000e+00  1.104320e+03  1.104320e+03 0.0 0.0 9.0
21 -1 0 0 103 101  0.000000e+00  0.000000e+00 -4.303084e+03  4.303084e+03 0.0 0.0 9.0
22  1 1 2   0   0  6.521642e+02  1.365883e+03 -3.545099e+03  3.854696e+03 0.0 0.0 9.0
 2  1 1 2 103   0 -6.521642e+02 -1.365883e+03  3.463354e+02  1.552708e+03 0.0022 0.0 9.0
#pdf 2 21 1.698955e-01 6.620129e-01 5000.0 4.233089e-01 1.456686e-02
</event>
<event>
4 7 1.0 5000.0 7.905138e-03 7.739137e-02
 2 -1 0 0 101   0  0.000000e+00  0.000000e+00  3.828387e+03  3.828387e+03 0.0 0.0 9.0
21 -1 0 0 103 101  0.000000e+00  0.000000e+00 -1.736871e+03  1.736871e+03 0.0 0.0 9.0
22  1 1 2   0   0  1.235255e+03 -1.669325e+03  2.695381e+03  3.402584e+03 0.0 0.0 9.0
 2  1 1 2 103   0 -1.235255e+03  1.669325e+03 -6.038648e+02  2.162673e+03 0.0022 0.0 9.0
#pdf 2 21 5.889826e-01 2.672109e-01 5000.0 3.220488e-02 2.908303e-01
</event>
<event>
4 7 1.0 5000.0 7.905138e-03 7.739137e-02
 2 -1 0 0 101   0  0.000000e+00  0.000000e+00  3.245999e+03  3.245999e+03 0.0 0.0 9.0
21 -1 0 0 103 101  0.000000e+00  0.000000e+00 -1.954929e+03  1.954929e+03 0.0 0.0 9.0
22  1 1 2   0   0  2.719720e+02  5.446586e+02 -1.877846e+03  1.974064e+03 0.0 0.0 9.0
 2  1 1 2 103   0 -2.719720e+02 -5.446586e+02  3.168917e+03  3.226864e+03 0.0022 0.0 9.0
#pdf 2 21 4.993845e-01 3.007583e-01 5000.0 7.079701e-02 2.482720e-01
</event>
<event>
4 7 1.0 5000.0 7.905138e-03 7.739137e-02
 2 -1 0 0 101   0  0.000000e+00  0.000000e+00  1.513316e+03  1.513316e+03 0.0 0.0 9.0
21 -1 0 0 103 101  0.000000e+00  0.000000e+00 -4.090414e+03  4.090414e+03 0.0 0.0 9.0
22  1 1 2   0   0 -1.143404e+03 -2.135083e+03 -1.929703e+03  3.096725e+03 0.0 0.0 9.0
 2  1 1 2 103   0  1.143404e+03  2.135083e+03 -6.473953e+02  2.507005e+03 0.0022 0.0 9.0
#pdf 2 21 2.328178e-01 6.292945e-01 5000.0 3.368659e-01 2.121048e-02
</event>
<event>
4 7 1.0 5000.0 7.905138e-03 7.739137e-02
 2 -1 0 0 101   0  0.000000e+00  0.000000e+00  1.778871e+03  1.778871e+03 0.0 0.0 9.0
21 -1 0 0 103 101  0.000000e+00  0.000000e+00 -3.566863e+03  3.566863e+03 0.0 0.0 9.0
 2  1 1 2 103   0 -5.640964e+02  1.405597e+03  1.241739e+03  1.958525e+03 0.0022 0.0 9.0
22  1 1 2   0   0  5.640964e+02 -1.405597e+03 -3.029731e+03  3.387208e+03 0.0 0.0 9.0
#pdf 2 21 2.736724e-01 5.487481e-01 5000.0 2.824159e-01 4.686608e-02
</event>
<event>
4 7 1.0 5000.0 7.905138e-03 7.739137e-02
 2 -1 0 0 101   0  0.000000e+00  0.000000e+00  1.725197e+03  1.725197e+03 0.0 0.0 9.0
21 -1 0 0 103 101  0.000000e+00  0.000000e+00 -3.653140e+03  3.653140e+03 0.0 0.0 9.0
 2  1 1 2 103   0 -1.152460e+03 -9.284427e+01 -3.350967e+03  3.544822e+03 0.0022 0.0 9.0
22  1 1 2   0   0  1.152460e+03  9.284427e+01  1.423023e+03  1.833515e+03 0.0 0.0 9.0
#pdf 2 21 2.654149e-01 5.620216e-01 5000.0 2.931831e-01 4.159889e-02
</event>
<event>
4 7 1.0 5000.0 7.905138e-03 7.739137e-02
 2 -1 0 0 101   0  0.000000e+00  0.000000e+00  1.781551e+03  1.781551e+03 0.0 0.0 9.0
21 -1 0 0 103 101  0.000000e+00  0.000000e+00 -3.502932e+03  3.502932e+03 0.0 0.0 9.0
 2  1 1 2 103   0 -8.987912e+02 -4.072679e+02  1.566688e+03  1.851541e+03 0.0022 0.0 9.0
22  1 1 2   0   0  8.987912e+02  4.072679e+02 -3.288069e+03  3.432942e+03 0.0 0.0 9.0
#pdf 2 21 2.740848e-01 5.389126e-01 5000.0 2.818820e-01 5.108129e-02
</event>
<event>
4 7 1.0 5000.0 7.905138e-03 7.739137e-02
21 -1 0 0 103 101  0.000000e+00  0.000000e+00  3.137737e+03  3.137737e+03 0.0 0.0 9.0
 2 -1 0 0 101   0  0.000000e+00  0.000000e+00 -2.000780e+03  2.000780e+03 0.0 0.0 9.0
 2  1 1 2 103   0  1.056895e+03 -6.095583e+02  2.812553e+03  3.065786e+03 0.0022 0.0 9.0
22  1 1 2   0   0 -1.056895e+03  6.095583e+02 -1.675596e+03  2.072730e+03 0.0 0.0 9.0
#pdf 21 2 4.827288e-01 3.078123e-01 5000.0 3.567736e-03 3.276714e-02
</event>
<event>
4 7 1.0 5000.0 7.905138e-03 7.739137e-02
21 -1 0 0 103 101  0.000000e+00  0.000000e+00  2.673521e+03  2.673521e+03 0.0 0.0 9.0
 2 -1 0 0 101   0  0.000000e+00  0.000000e+00 -2.339450e+03  2.339450e+03 0.0 0.0 9.0
 2  1 1 2 103   0  1.721077e+03  6.991269e+02  1.845187e+03  2.618320e+03 0.0022 0.0 9.0
22  1 1 2   0   0 -1.721077e+03 -6.991269e+02 -1.511116e+03  2.394651e+03 0.0 0.0 9.0
#pdf 21 2 4.113109e-01 3.599153e-01 5000.0 9.080966e-03 1.726637e-02
</event>
<event>
4 7 1.0 5000.0 7.905138e-03 7.739137e-02
 2 -1 0 0 101   0  0.000000e+00  0.000000e+00  3.997151e+03  3.997151e+03 0.0 0.0 9.0
21 -1 0 0 103 101  0.000000e+00  0.000000e+00 -1.400304e+03  1.400304e+03 0.0 0.0 9.0
 2  1 1 2 103   0 -1.754546e+03  1.571690e+03  1.046992e+03  2.577757e+03 0.0022 0.0 9.0
22  1 1 2   0   0  1.754546e+03 -1.571690e+03  1.549856e+03  2.819697e+03 0.0 0.0 9.0
#pdf 2 21 6.149463e-01 2.154313e-01 5000.0 2.474405e-02 3.606891e-01
</event>
<event>
4 7 1.0 5000.0 7.905138e-03 7.739137e-02
21 -1 0 0 103 101  0.000000e+00  0.000000e+00  2.043825e+03  2.043825e+03 0.0 0.0 9.0
 2 -1 0 0 101   0  0.000000e+00  0.000000e+00 -3.092429e+03  3.092429e+03 0.0 0.0 9.0
 2  1 1 2 103   0 -1.320169e+03 -2.126527e+03 -7.647792e+02  2.617222e+03 0.0022 0.0 9.0
22  1 1 2   0   0  1.320169e+03  2.126527e+03 -2.838241e+02  2.519032e+03 0.0 0.0 9.0
#pdf 21 2 3.144347e-01 4.757582e-01 5000.0 3.019189e-02 3.920564e-03
</event>
<event>
4 7 1.0 5000.0 7.905138e-03 7.739137e-02
21 -1 0 0 103 101  0.000000e+00  0.000000e+00  2.495820e+03  2.495820e+03 0.0 0.0 9.0
 2 -1 0 0 101   0  0.000000e+00  0.000000e+00 -2.550588e+03  2.550588e+03 0.0 0.0 9.0
22  1 1 2   0   0 -1.259735e+03 -4.914915e+02 -2.157607e+03  2.546323e+03 0.0 0.0 9.0
 2  1 1 2 103   0  1.259735e+03  4.914915e+02  2.102838e+03  2.500085e+03 0.0022 0.0 9.0
#pdf 21 2 3.839723e-01 3.923982e-01 5000.0 1.282160e-02 1.153027e-02
</event>
<event>
4 7 1.0 5000.0 7.905138e-03 7.739137e-02
21 -1 0 0 103 101  0.000000e+00  0.000000e+00  1.637499e+03  1.637499e+03 0.0 0.0 9.0
 2 -1 0 0 101   0  0.000000e+00  0.000000e+00 -4.160531e+03  4.160531e+03 0.0 0.0 9.0
22  1 1 2   0   0  4.703225e+02  2.367357e+03 -2.365102e+03  3.379244e+03 0.0 0.0 9.0
 2  1 1 2 103   0 -4.703225e+02 -2.367357e+03 -1.579301e+02  2.418786e+03 0.0022 0.0 9.0
#pdf 21 2 2.519229e-01 6.400816e-01 5000.0 6.516970e-02 3.295858e-04
</event>
<event>
4 7 1.0 5000.0 7.905138e-03 7.739137e-02
21 -1 0 0 103 101  0.000000e+00  0.000000e+00  2.379112e+03  2.379112e+03 0.0 0.0 9.0
 2 -1 0 0 101   0  0.000000e+00  0.000000e+00 -2.621245e+03  2.621245e+03 0.0 0.0 9.0
 2  1 1 2 103   0  1.887173e+03 -7.157627e+02 -1.593337e+03  2.571470e+03 0.0022 0.0 9.0
22  1 1 2   0   0 -1.887173e+03  7.157627e+02  1.351204e+03  2.428887e+03 0.0 0.0 9.0
#pdf 21 2 3.660173e-01 4.032684e-01 5000.0 1.601664e-02 1.005709e-02
</event>
<event>
4 7 1.0 5000.0 7.905138e-03 7.739137e-02
 2 -1 0 0 101   0  0.000000e+00  0.000000e+00  2.280473e+03  2.280473e+03 0.0 0.0 9.0
21 -1 0 0 103 101  0.000000e+00  0.000000e+00 -2.775081e+03  2.775081e+03 0.0 0.0 9.0
22  1 1 2   0   0 -1.783343e+03  7.279659e+02 -1.873206e+03  2.686847e+03 0.0 0.0 9.0
 2  1 1 2 103   0  1.783343e+03 -7.279659e+02  1.378598e+03  2.368708e+03 0.0022 0.0 9.0
#pdf 2 21 3.508421e-01 4.269356e-01 5000.0 1.907689e-01 1.197614e-01
</event>
<event>
4 7 1.0 5000.0 7.905138e-03 7.739137e-02
21 -1 0 0 103 101  0.000000e+00  0.000000e+00  1.717443e+03  1.717443e+03 0.0 0.0 9.0
 2 -1 0 0 101   0  0.000000e+00  0.000000e+00 -2.937174e+03  2.937174e+03 0.0 0.0 9.0
22  1 1 2   0   0  1.882719e+03  7.721736e+02 -1.594835e+03  2.585418e+03 0.0 0.0 9.0
 2  1 1 2 103   0 -1.882719e+03 -7.721736e+02  3.751033e+02  2.069200e+03 0.0022 0.0 9.0
#pdf 21 2 2.642219e-01 4.518730e-01 5000.0 5.589080e-02 5.385017e-03
</event>
<event>
4 7 1.0 5000.0 7.905138e-03 7.739137e-02
21 -1 0 0 103 101  0.000000e+00  0.000000e+00  1.687986e+03  1.687986e+03 0.0 0.0 9.0
 2 -1 0 0 101   0  0.000000e+00  0.000000e+00 -3.753162e+03  3.753162e+03 0.0 0.0 9.0
22  1 1 2   0   0 -2.367785e+03 -7.791654e+02 -1.409779e+03  2.863736e+03 0.0 0.0 9.0
 2  1 1 2 103   0  2.367785e+03  7.791654e+02 -6.553973e+02  2.577412e+03 0.0022 0.0 9.0
#pdf 21 2 2.596901e-01 5.774095e-01 5000.0 5.913699e-02 9.145264e-04
</event>
<event>
4 7 1.0 5000.0 7.905138e-03 7.739137e-02
21 -1 0 0 103 101  0.000000e+00  0.000000e+00  3.070013e+03  3.070013e+03 0.0 0.0 9.0
 2 -1 0 0 101   0  0.000000e+00  0.000000e+00 -2.078466e+03  2.078466e+03 0.0 0.0 9.0
 2  1 1 2 103   0  2.051631e+03  1.318326e+03 -1.753853e+02  2.444981e+03 0.0022 0.0 9.0
22  1 1 2   0   0 -2.051631e+03 -1.318326e+03  1.166931e+03  2.703498e+03 0.0 0.0 9.0
#pdf 21 2 4.723096e-01 3.197641e-01 5000.0 4.106187e-03 2.827451e-02
</event>
<event>
4 7 1.0 5000.0 7.905138e-03 7.739137e-02
 2 -1 0 0 101   0  0.000000e+00  0.000000e+00  2.737623e+03  2.737623e+03 0.0 0.0 9.0
21 -1 0 0 103 101  0.000000e+00  0.000000e+00 -2.813215e+03  2.813215e+03 0.0 0.0 9.0
 2  1 1 2 103   0  1.572338e+03  1.856572e+03 -1.372991e+03  2.793602e+03 0.0022 0.0 9.0
22  1 1 2   0   0 -1.572338e+03 -1.856572e+03  1.297399e+03  2.757236e+03 0.0 0.0 9.0
#pdf 2 21 4.211727e-01 4.328023e-01 5000.0 1.244256e-01 1.151425e-01
</event>
<event>
4 7 1.0 5000.0 7.905138e-03 7.739137e-02
 2 -1 0 0 101   0  0.000000e+00  0.000000e+00  3.601471e+03  3.601471e+03 0.0 0.0 9.0
21 -1 0 0 103 101  0.000000e+00  0.000000e+00 -1.730920e+03  1.730920e+03 0.0 0.0 9.0
 2  1 1 2 103   0 -2.462116e+03 -3.350286e+02  6.745808e+02  2.574746e+03 0.0022 0.0 9.0
22  1 1 2   0   0  2.462116e+03  3.350286e+02  1.195970e+03  2.757644e+03 0.0 0.0 9.0
#pdf 2 21 5.540724e-01 2.662953e-01 5000.0 4.469348e-02 2.920291e-01
</event>
<event>
4 7 1.0 5000.0 7.905138e-03 7.739137e-02
 2 -1 0 0 101   0  0.000000e+00  0.000000e+00  1.353653e+03  1.353653e+03 0.0 0.0 9.0
21 -1 0 0 103 101  0.000000e+00  0.000000e+00 -4.699146e+03  4.699146e+03 0.0 0.0 9.0
22  1 1 2   0   0 -8.738554e+02 -2.293858e+03 -2.367894e+03  3.410620e+03 0.0 0.0 9.0
 2  1 1 2 103   0  8.738554e+02  2.293858e+03 -9.775987e+02  2.642179e+03 0.0022 0.0 9.0
#pdf 2 21 2.082543e-01 7.229455e-01 5000.0 3.706414e-01 6.463897e-03
</event>
<event>
4 7 1.0 5000.0 7.905138e-03 7.739137e-02
 2 -1 0 0 101   0  0.000000e+00  0.000000e+00  2.185879e+03  2.185879e+03 0.0 0.0 9.0
21 -1 0 0 103 101  0.000000e+00  0.000000e+00 -2.918421e+03  2.918421e+03 0.0 0.0 9.0
 2  1 1 2 103   0 -2.384746e+03 -7.795713e+02 -6.601237e+02  2.594323e+03 0.0022 0.0 9.0
22  1 1 2   0   0  2.384746e+03  7.795713e+02 -7.241819e+01  2.509978e+03 0.0 0.0 9.0
#pdf 2 21 3.362891e-01 4.489879e-01 5000.0 2.066470e-01 1.029864e-01
</event>
<event>
4 7 1.0 5000.0 7.905138e-03 7.739137e-02
21 -1 0 0 103 101  0.000000e+00  0.000000e+00  2.093633e+03  2.093633e+03 0.0 0.0 9.0
 2 -1 0 0 101   0  0.000000e+00  0.000000e+00 -2.228529e+03  2.228529e+03 0.0 0.0 9.0
22  1 1 2   0   0  1.629010e+03 -1.354082e+03  3.552644e+02  2.147888e+03 0.0 0.0 9.0
 2  1 1 2 103   0 -1.629010e+03  1.354082e+03 -4.901604e+02  2.174274e+03 0.0022 0.0 9.0
#pdf 21 2 3.220974e-01 3.428507e-01 5000.0 2.747808e-02 2.130682e-02
</event>
<event>
4 7 1.0 5000.0 7.905138e-03 7.739137e-02
21 -1 0 0 103 101  0.000000e+00  0.000000e+00  1.986007e+03  1.986007e+03 0.0 0.0 9.0
 2 -1 0 0 101   0  0.000000e+00  0.000000e+00 -3.191351e+03  3.191351e+03 0.0 0.0 9.0
 2  1 1 2 103   0  1.170908e+03 -1.658068e+02  1.682628e+03  2.056637e+03 0.0022 0.0 9.0
22  1 1 2   0   0 -1.170908e+03  1.658068e+02 -2.887972e+03  3.120721e+03 0.0 0.0 9.0
#pdf 21 2 3.055395e-01 4.909771e-01 5000.0 3.369050e-02 3.189773e-03
</event>
<event>
4 7 1.0 5000.0 7.905138e-03 7.739137e-02
 2 -1 0 0 101   0  0.000000e+00  0.000000e+00  1.245595e+03  1.245595e+03 0.0 0.0 9.0
21 -1 0 0 103 101  0.000000e+00  0.000000e+00 -4.797305e+03  4.797305e+03 0.0 0.0 9.0
 2  1 1 2 103   0 -1.227710e+03  1.740633e+03 -2.934330e+02  2.150157e+03 0.0022 0.0 9.0
22  1 1 2   0   0  1.227710e+03 -1.740633e+03 -3.258278e+03  3.892743e+03 0.0 0.0 9.0
#pdf 2 21 1.916300e-01 7.380470e-01 5000.0 3.935895e-01 5.137788e-03
</event>
<event>
4 7 1.0 5000.0 7.905138e-03 7.739137e-02
 2 -1 0 0 101   0  0.000000e+00  0.000000e+00  1.432229e+03  1.432229e+03 0.0 0.0 9.0
21 -1 0 0 103 101  0.000000e+00  0.000000e+00 -4.404214e+03  4.404214e+03 0.0 0.0 9.0
 2  1 1 2 103   0 -2.369030e+02  1.016768e+03 -4.140145e+03  4.269747e+03 0.0022 0.0 9.0
22  1 1 2   0   0  2.369030e+02 -1.016768e+03  1.168160e+03  1.566696e+03 0.0 0.0 9.0
#pdf 2 21 2.203430e-01 6.775714e-01 5000.0 3.539422e-01 1.201450e-02
</event>
<event>
4 7 1.0 5000.0 7.905138e-03 7.739137e-02
 2 -1 0 0 101   0  0.000000e+00  0.000000e+00  1.527317e+03  1.527317e+03 0.0 0.0 9.0
21 -1 0 0 103 101  0.000000e+00  0.000000e+00 -4.155296e+03  4.155296e+03 0.0 0.0 9.0
22  1 1 2   0   0 -2.328613e+03 -8.727708e+02 -8.596383e+02  2.631187e+03 0.0 0.0 9.0
 2  1 1 2 103   0  2.328613e+03  8.727708e+02 -1.768340e+03  3.051425e+03 0.0022 0.0 9.0
#pdf 2 21 2.349719e-01 6.392763e-01 5000.0 3.339158e-01 1.898431e-02
</event>
<event>
4 7 1.0 5000.0 7.905138e-03 7.739137e-02
21 -1 0 0 103 101  0.000000e+00  0.000000e+00  3.352845e+03  3.352845e+03 0.0 0.0 9.0
 2 -1 0 0 101   0  0.000000e+00  0.000000e+00 -1.882845e+03  1.882845e+03 0.0 0.0 9.0
22  1 1 2   0   0  3.072408e+02  1.963807e+03  2.336273e+03  3.067427e+03 0.0 0.0 9.0
 2  1 1 2 103   0 -3.072408e+02 -1.963807e+03 -8.662739e+02  2.168263e+03 0.0022 0.0 9.0
#pdf 21 2 5.158222e-01 2.896685e-01 5000.0 2.261465e-03 4.090304e-02
</event>
<event>
4 7 1.0 5000.0 7.905138e-03 7.739137e-02
21 -1 0 0 103 101  0.000000e+00  0.000000e+00  2.441351e+03  2.441351e+03 0.0 0.0 9.0
 2 -1 0 0 101   0  0.000000e+00  0.000000e+00 -2.543959e+03  2.543959e+03 0.0 0.0 9.0
 2  1 1 2 103   0 -1.825809e+03  3.634484e+02  1.605858e+03  2.458547e+03 0.0022 0.0 9.0
22  1 1 2   0   0  1.825809e+03 -3.634484e+02 -1.708465e+03  2.526763e+03 0.0 0.0 9.0
#pdf 21 2 3.755925e-01 3.913783e-01 5000.0 1.423067e-02 1.167912e-02
</event>
<event>
4 7 1.0 5000.0 7.905138e-03 7.739137e-02
21 -1 0 0 103 101  0.000000e+00  0.000000e+00  4.067152e+03  4.067152e+03 0.0 0.0 9.0
 2 -1 0 0 101   0  0.000000e+00  0.000000e+00 -1.283416e+03  1.283416e+03 0.0 0.0 9.0
22  1 1 2   0   0  1.048229e+03 -3.410375e+02 -9.514380e+02  1.456134e+03 0.0 0.0 9.0
 2  1 1 2 103   0 -1.048229e+03  3.410375e+02  3.735174e+03  3.894434e+03 0.0022 0.0 9.0
#pdf 21 2 6.257157e-01 1.974486e-01 5000.0 4.211698e-04 1.300556e-01
</event>
<event>
4 7 1.0 5000.0 7.905138e-03 7.739137e-02
21 -1 0 0 103 101  0.000000e+00  0.000000e+00  2.602312e+03  2.602312e+03 0.0 0.0 9.0
 2 -1 0 0 101   0  0.000000e+00  0.000000e+00 -2.316119e+03  2.316119e+03 0.0 0.0 9.0
22  1 1 2   0   0 -6.967803e+02  1.944295e+03  1.472556e+03  2.536574e+03 0.0 0.0 9.0
 2  1 1 2 103   0  6.967803e+02 -1.944295e+03 -1.186363e+03  2.381857e+03 0.0022 0.0 9.0
#pdf 21 2 4.003556e-01 3.563259e-01 5000.0 1.043300e-02 1.804500e-02
</event>
<event>
4 7 1.0 5000.0 7.905138e-03 7.739137e-02
 2 -1 0 0 101   0  0.000000e+00  0.000000e+00  1.529653e+03  1.529653e+03 0.0 0.0 9.0
21 -1 0 0 103 101  0.000000e+00  0.000000e+00 -4.006474e+03  4.006474e+03 0.0 0.0 9.0
 2  1 1 2 103   0 -7.401893e+02  6.920723e+02  1.287132e+03  1.638155e+03 0.0022 0.0 9.0
22  1 1 2   0   0  7.401893e+02 -6.920723e+02 -3.763952e+03  3.897971e+03 0.0 0.0 9.0
#pdf 2 21 2.353312e-01 6.163806e-01 5000.0 3.334243e-01 2.437278e-02
</event>
<event>
4 7 1.0 5000.0 7.905138e-03 7.739137e-02
 2 -1 0 0 101   0  0.000000e+00  0.000000e+00  2.451876e+03  2.451876e+03 0.0 0.0 9.0
21 -1 0 0 103 101  0.000000e+00  0.000000e+00 -2.537748e+03  2.537748e+03 0.0 0.0 9.0
 2  1 1 2 103   0 -1.091177e+03  2.050839e+03 -9.517172e+02  2.510452e+03 0.0022 0.0 9.0
22  1 1 2   0   0  1.091177e+03 -2.050839e+03  8.658445e+02  2.479172e+03 0.0 0.0 9.0
#pdf 2 21 3.772117e-01 3.904228e-01 5000.0 1.638625e-01 1.513042e-01
</event>
<event>
4 7 1.0 5000.0 7.905138e-03 7.739137e-02
 2 -1 0 0 101   0  0.000000e+00  0.000000e+00  2.501399e+03  2.501399e+03 0.0 0.0 9.0
21 -1 0 0 103 101  0.000000e+00  0.000000e+00 -2.509134e+03  2.509134e+03 0.0 0.0 9.0
 2  1 1 2 103   0  1.820005e+03 -5.002977e+02  1.643444e+03  2.502723e+03 0.0022 0.0 9.0
22  1 1 2   0   0 -1.820005e+03  5.002977e+02 -1.651180e+03  2.507810e+03 0.0 0.0 9.0
#pdf 2 21 3.848306e-01 3.860207e-01 5000.0 1.565451e-01 1.554202e-01
</event>
<event>
4 7 1.0 5000.0 7.905138e-03 7.739137e-02
 2 -1 0 0 101   0  0.000000e+00  0.000000e+00  2.872426e+03  2.872426e+03 0.0 0.0 9.0
21 -1 0 0 103 101  0.000000e+00  0.000000e+00 -2.358752e+03  2.358752e+03 0.0 0.0 9.0
22  1 1 2   0   0 -1.216075e+03  1.800172e+03 -1.183961e+03  2.474110e+03 0.0 0.0 9.0
 2  1 1 2 103   0  1.216075e+03 -1.800172e+03  1.697635e+03  2.757068e+03 0.0022 0.0 9.0
#pdf 2 21 4.419117e-01 3.628849e-01 5000.0 1.081981e-01 1.781773e-01
</event>
<event>
4 7 1.0 5000.0 7.905138e-03 7.739137e-02
 2 -1 0 0 101   0  0.000000e+00  0.000000e+00  4.165113e+03  4.165113e+03 0.0 0.0 9.0
21 -1 0 0 103 101  0.000000e+00  0.000000e+00 -1.577248e+03  1.577248e+03 0.0 0.0 9.0
22  1 1 2   0   0 -9.232190e+02 -1.437942e+03  3.433905e+03  3.835585e+03 0.0 0.0 9.0
 2  1 1 2 103   0  9.232190e+02  1.437942e+03 -8.460394e+02  1.906776e+03 0.0022 0.0 9.0
#pdf 2 21 6.407867e-01 2.426535e-01 5000.0 1.866316e-02 3.234882e-01
</event>
<event>
4 7 1.0 5000.0 7.905138e-03 7.739137e-02
 2 -1 0 0 101   0  0.000000e+00  0.000000e+00  1.772168e+03  1.772168e+03 0.0 0.0 9.0
21 -1 0 0 103 101  0.000000e+00  0.000000e+00 -3.465625e+03  3.465625e+03 0.0 0.0 9.0
22  1 1 2   0   0 -1.420945e+03 -1.145229e+03  9.250450e+02  2.046055e+03 0.0 0.0 9.0
 2  1 1 2 103   0  1.420945e+03  1.145229e+03 -2.618502e+03  3.191737e+03 0.0022 0.0 9.0
#pdf 2 21 2.726412e-01 5.331730e-01 5000.0 2.837527e-01 5.367278e-02
</event>
<event>
4 7 1.0 5000.0 7.905138e-03 7.739137e-02
 2 -1 0 0 101   0  0.000000e+00  0.000000e+00  1.958268e+03  1.958268e+03 0.0 0.0 9.0
21 -1 0 0 103 101  0.000000e+00  0.000000e+00 -3.212447e+03  3.212447e+03 0.0 0.0 9.0
22  1 1 2   0   0  1.867558e+03  1.057883e+03  7.105232e+02  2.260914e+03 0.0 0.0 9.0
 2  1 1 2 103   0 -1.867558e+03 -1.057883e+03 -1.964702e+03  2.909801e+03 0.0022 0.0 9.0
#pdf 2 21 3.012721e-01 4.942226e-01 5000.0 2.476411e-01 7.371686e-02
</event>
<event>
4 7 1.0 5000.0 7.905138e-03 7.739137e-02
21 -1 0 0 103 101  0.000000e+00  0.000000e+00  2.323179e+03  2.323179e+03 0.0 0.0 9.0
 2 -1 0 0 101   0  0.000000e+00  0.000000e+00 -2.811721e+03  2.811721e+03 0.0 0.0 9.0
22  1 1 2   0   0  1.787079e+03 -1.719486e+03 -8.650233e+02  2.626509e+03 0.0 0.0 9.0
 2  1 1 2 103   0 -1.787079e+03  1.719486e+03  3.764816e+02  2.508391e+03 0.0022 0.0 9.0
#pdf 21 2 3.574121e-01 4.325724e-01 5000.0 1.780482e-02 6.919787e-03
</event>
<event>
4 7 1.0 5000.0 7.905138e-03 7.739137e-02
21 -1 0 0 103 101  0.000000e+00  0.000000e+00  2.073021e+03  2.073021e+03 0.0 0.0 9.0
 2 -1 0 0 101   0  0.000000e+00  0.000000e+00 -2.969441e+03  2.969441e+03 0.0 0.0 9.0
 2  1 1 2 103   0  9.624890e+02  2.171118e+03 -1.177868e+03  2.650946e+03 0.0022 0.0 9.0
22  1 1 2   0   0 -9.624890e+02 -2.171118e+03  2.814473e+02  2.391516e+03 0.0 0.0 9.0
#pdf 21 2 3.189262e-01 4.568372e-01 5000.0 2.856641e-02 5.043652e-03
</event>
<event>
4 7 1.0 5000.0 7.905138e-03 7.739137e-02
21 -1 0 0 103 101  0.000000e+00  0.000000e+00  1.916078e+03  1.916078e+03 0.0 0.0 9.0
 2 -1 0 0 101   0  0.000000e+00  0.000000e+00 -3.558627e+03  3.558627e+03 0.0 0.0 9.0
22  1 1 2   0   0  1.723071e+03  1.920034e+03 -3.979141e+02  2.610333e+03 0.0 0.0 9.0
 2  1 1 2 103   0 -1.723071e+03 -1.920034e+03 -1.244635e+03  2.864371e+03 0.0022 0.0 9.0
#pdf 21 2 2.947812e-01 5.474810e-01 5000.0 3.843623e-02 1.434737e-03
</event>
<event>
4 7 1.0 5000.0 7.905138e-03 7.739137e-02
21 -1 0 0 103 101  0.000000e+00  0.000000e+00  3.556779e+03  3.556779e+03 0.0 0.0 9.0
 2 -1 0 0 101   0  0.000000e+00  0.000000e+00 -1.681988e+03  1.681988e+03 0.0 0.0 9.0
 2  1 1 2 103   0 -1.651591e+03 -4.716524e+02  2.802236e+03  3.286752e+03 0.0022 0.0 9.0
22  1 1 2   0   0  1.651591e+03  4.716524e+02 -9.274454e+02  1.952015e+03 0.0 0.0 9.0
#pdf 21 2 5.471967e-01 2.587674e-01 5000.0 1.440807e-03 5.982487e-02
</event>
<event>
4 7 1.0 5000.0 7.905138e-03 7.739137e-02
21 -1 0 0 103 101  0.000000e+00  0.000000e+00  3.623598e+03  3.623598e+03 0.0 0.0 9.0
 2 -1 0 0 101   0  0.000000e+00  0.000000e+00 -1.737152e+03  1.737152e+03 0.0 0.0 9.0
 2  1 1 2 103   0  1.862695e+03 -1.620171e+03  4.652660e+02  2.512182e+03 0.0022 0.0 9.0
22  1 1 2   0   0 -1.862695e+03  1.620171e+03  1.421180e+03  2.848568e+03 0.0 0.0 9.0
#pdf 21 2 5.574766e-01 2.672542e-01 5000.0 1.238745e-03 5.383565e-02
</event>
<event>
4 7 1.0 5000.0 7.905138e-03 7.739137e-02
21 -1 0 0 103 101  0.000000e+00  0.000000e+00  2.057388e+03  2.057388e+03 0.0 0.0 9.0
 2 -1 0 0 101   0  0.000000e+00  0.000000e+00 -3.012378e+03  3.012378e+03 0.0 0.0 9.0
22  1 1 2   0   0 -2.278178e+03  8.163167e+02 -1.072231e+03  2.646913e+03 0.0 0.0 9.0
 2  1 1 2 103   0  2.278178e+03 -8.163167e+02  1.172417e+02  2.422852e+03 0.0022 0.0 9.0
#pdf 21 2 3.165212e-01 4.634427e-01 5000.0 2.942330e-02 4.619583e-03
</event>
<event>
4 7 1.0 5000.0 7.905138e-03 7.739137e-02
 2 -1 0 0 101   0  0.000000e+00  0.000000e+00  3.046990e+03  3.046990e+03 0.0 0.0 9.0
21 -1 0 0 103 101  0.000000e+00  0.000000e+00 -1.818451e+03  1.818451e+03 0.0 0.0 9.0
 2  1 1 2 103   0 -3.161023e+02  2.047050e+03 -5.414229e+02  2.140905e+03 0.0022 0.0 9.0
22  1 1 2   0   0  3.161023e+02 -2.047050e+03  1.769962e+03  2.724537e+03 0.0 0.0 9.0
#pdf 2 21 4.687677e-01 2.797617e-01 5000.0 8.936169e-02 2.745777e-01
</event>
<event>
4 7 1.0 5000.0 7.905138e-03 7.739137e-02
21 -1 0 0 103 101  0.000000e+00  0.000000e+00  3.075217e+03  3.075217e+03 0.0 0.0 9.0
 2 -1 0 0 101   0  0.000000e+00  0.000000e+00 -2.054286e+03  2.054286e+03 0.0 0.0 9.0
22  1 1 2   0   0  2.304851e+03  1.253124e+02  1.525425e+03  2.766760e+03 0.0 0.0 9.0
 2  1 1 2 103   0 -2.304851e+03 -1.253124e+02 -5.044941e+02  2.362743e+03 0.0022 0.0 9.0
#pdf 21 2 4.731103e-01 3.160440e-01 5000.0 4.062412e-03 2.959706e-02
</event>
<event>
4 7 1.0 5000.0 7.905138e-03 7.739137e-02
 2 -1 0 0 101   0  0.000000e+00  0.000000e+00  1.487294e+03  1.487294e+03 0.0 0.0 9.0
21 -1 0 0 103 101  0.000000e+00  0.000000e+00 -3.935655e+03  3.935655e+03 0.0 0.0 9.0
22  1 1 2   0   0 -6.725292e+01  1.424022e+03  9.665739e+02  1.722390e+03 0.0 0.0 9.0
 2  1 1 2 103   0  6.725292e+01 -1.424022e+03 -3.414935e+03  3.700560e+03 0.0022 0.0 9.0
#pdf 2 21 2.288145e-01 6.054854e-01 5000.0 3.423536e-01 2.729840e-02
</event>
<event>
4 7 1.0 5000.0 7.905138e-03 7.739137e-02
21 -1 0 0 103 101  0.000000e+00  0.000000e+00  2.304585e+03  2.304585e+03 0.0 0.0 9.0
 2 -1 0 0 101   0  0.000000e+00  0.000000e+00 -2.403404e+03  2.403404e+03 0.0 0.0 9.0
22  1 1 2   0   0  1.170709e+03 -1.222480e+03  1.586136e+03  2.319665e+03 0.0 0.0 9.0
 2  1 1 2 103   0 -1.170709e+03  1.222480e+03 -1.684954e+03  2.388324e+03 0.0022 0.0 9.0
#pdf 21 2 3.545515e-01 3.697544e-01 5000.0 1.844727e-02 1.528232e-02
</event>
<event>
4 7 1.0 5000.0 7.905138e-03 7.739137e-02
 3 -1 0 0 101   0  0.000000e+00  0.000000e+00  1.668935e+03  1.668935e+03 0.0 0.0 9.0
21 -1 0 0 103 101  0.000000e+00  0.000000e+00 -3.870540e+03  3.870540e+03 0.0 0.0 9.0
22  1 1 2   0   0 -2.196375e+03 -2.042497e+02  2.750243e+02  2.222930e+03 0.0 0.0 9.0
 3  1 1 2 103   0  2.196375e+03  2.042497e+02 -2.476629e+03  3.316545e+03 0.096 0.0 9.0
#pdf 3 21 2.567593e-01 5.954677e-01 5000.0 6.395338e-03 3.920933e-05
</event>
<event>
4 7 1.0 5000.0 7.905138e-03 7.739137e-02
21 -1 0 0 103 101  0.000000e+00  0.000000e+00  2.256966e+03  2.256966e+03 0.0 0.0 9.0
 3 -1 0 0 101   0  0.000000e+00  0.000000e+00 -2.780626e+03  2.780626e+03 0.0 0.0 9.0
22  1 1 2   0   0  1.351257e+03  2.026808e+03 -8.497657e+02  2.579912e+03 0.0 0.0 9.0
 3  1 1 2 103   0 -1.351257e+03 -2.026808e+03  3.261053e+02  2.457680e+03 0.096 0.0 9.0
#pdf 21 3 3.472255e-01 4.277886e-01 5000.0 2.019663e-02 7.356947e-03
</event>
<event>
4 7 1.0 5000.0 7.905138e-03 7.739137e-02
 3 -1 0 0 101   0  0.000000e+00  0.000000e+00  2.585376e+03  2.585376e+03 0.0 0.0 9.0
21 -1 0 0 103 101  0.000000e+00  0.000000e+00 -2.391526e+03  2.391526e+03 0.0 0.0 9.0
 3  1 1 2 103   0 -3.015565e+02  1.966179e+03 -1.396252e+03  2.430292e+03 0.096 0.0 9.0
22  1 1 2   0   0  3.015565e+02 -1.966179e+03  1.590102e+03  2.546610e+03 0.0 0.0 9.0
#pdf 3 21 3.977502e-01 3.679270e-01 5000.0 9.403828e-04 1.438842e-03
</event>
<event>
4 7 1.0 5000.0 7.905138e-03 7.739137e-02
 3 -1 0 0 101   0  0.000000e+00  0.000000e+00  3.196428e+03  3.196428e+03 0.0 0.0 9.0
21 -1 0 0 103 101  0.000000e+00  0.000000e+00 -1.906047e+03  1.906047e+03 0.0 0.0 9.0
22  1 1 2   0   0 -1.510393e+03 -6.070068e+02  2.563009e+03  3.036241e+03 0.0 0.0 9.0
 3  1 1 2 103   0  1.510393e+03  6.070068e+02 -1.272628e+03  2.066235e+03 0.096 0.0 9.0
#pdf 3 21 4.917582e-01 2.932381e-01 5000.0 2.230439e-04 3.975205e-03
</event>
<event>
4 7 1.0 5000.0 7.905138e-03 7.739137e-02
21 -1 0 0 103 101  0.000000e+00  0.000000e+00  1.860754e+03  1.860754e+03 0.0 0.0 9.0
 3 -1 0 0 101   0  0.000000e+00  0.000000e+00 -3.372075e+03  3.372075e+03 0.0 0.0 9.0
 3  1 1 2 103   0  9.648075e+02 -2.311645e+03 -7.485263e+02  2.614354e+03 0.096 0.0 9.0
22  1 1 2   0   0 -9.648075e+02  2.311645e+03 -7.627951e+02  2.618475e+03 0.0 0.0 9.0
#pdf 21 3 2.862698e-01 5.187808e-01 5000.0 4.262153e-02 2.168737e-03
</event>
<event>
4 7 1.0 5000.0 7.905138e-03 7.739137e-02
 3 -1 0 0 101   0  0.000000e+00  0.000000e+00  3.530922e+03  3.530922e+03 0.0 0.0 9.0
21 -1 0 0 103 101  0.000000e+00  0.000000e+00 -1.717923e+03  1.717923e+03 0.0 0.0 9.0
 3  1 1 2 103   0 -3.349966e+01 -7.736838e+02 -1.584814e+03  1.763900e+03 0.096 0.0 9.0
22  1 1 2   0   0  3.349966e+01  7.736838e+02  3.397813e+03  3.484945e+03 0.0 0.0 9.0
#pdf 3 21 5.432188e-01 2.642959e-01 5000.0 9.540584e-05 5.795805e-03
</event>
<event>
4 7 1.0 5000.0 7.905138e-03 7.739137e-02
21 -1 0 0 103 101  0.000000e+00  0.000000e+00  2.604123e+03  2.604123e+03 0.0 0.0 9.0
 3 -1 0 0 101   0  0.000000e+00  0.000000e+00 -2.350032e+03  2.350032e+03 0.0 0.0 9.0
22  1 1 2   0   0 -1.490203e+03  9.248909e+02 -1.619858e+03  2.387482e+03 0.0 0.0 9.0
 3  1 1 2 103   0  1.490203e+03 -9.248909e+02  1.873949e+03  2.566673e+03 0.096 0.0 9.0
#pdf 21 3 4.006343e-01 3.615435e-01 5000.0 1.039649e-02 1.692566e-02
</event>
<event>
4 7 1.0 5000.0 7.905138e-03 7.739137e-02
21 -1 0 0 103 101  0.000000e+00  0.000000e+00  1.539798e+03  1.539798e+03 0.0 0.0 9.0
 3 -1 0 0 101   0  0.000000e+00  0.000000e+00 -3.834695e+03  3.834695e+03 0.0 0.0 9.0
22  1 1 2   0   0 -1.281561e+03 -2.032913e+03 -7.494509e+02  2.517303e+03 0.0 0.0 9.0
 3  1 1 2 103   0  1.281561e+03  2.032913e+03 -1.545446e+03  2.857191e+03 0.096 0.0 9.0
#pdf 21 3 2.368921e-01 5.899531e-01 5000.0 7.860391e-02 7.526325e-04
</event>
<event>
4 7 1.0 5000.0 7.905138e-03 7.739137e-02
21 -1 0 0 103 101  0.000000e+00  0.000000e+00  3.031244e+03  3.031244e+03 0.0 0.0 9.0
 3 -1 0 0 101   0  0.000000e+00  0.000000e+00 -2.080683e+03  2.080683e+03 0.0 0.0 9.0
22  1 1 2   0   0 -1.116037e+03  1.324753e+03  2.325949e+03  2.900094e+03 0.0 0.0 9.0
 3  1 1 2 103   0  1.116037e+03 -1.324753e+03 -1.375389e+03  2.211833e+03 0.096 0.0 9.0
#pdf 21 3 4.663452e-01 3.201051e-01 5000.0 4.445587e-03 2.815660e-02
</event>
<event>
4 7 1.0 5000.0 7.905138e-03 7.739137e-02
 3 -1 0 0 101   0  0.000000e+00  0.000000e+00  2.918519e+03  2.918519e+03 0.0 0.0 9.0
21 -1 0 0 103 101  0.000000e+00  0.000000e+00 -1.828410e+03  1.828410e+03 0.0 0.0 9.0
22  1 1 2   0   0 -1.406654e+03 -1.416134e+03  1.739800e+03  2.647832e+03 0.0 0.0 9.0
 3  1 1 2 103   0  1.406654e+03  1.416134e+03 -6.496909e+02  2.099097e+03 0.096 0.0 9.0
#pdf 3 21 4.490028e-01 2.812938e-01 5000.0 4.373281e-04 4.644646e-03
</event>
<event>
4 7 1.0 5000.0 7.905138e-03 7.739137e-02
21 -1 0 0 103 101  0.000000e+00  0.000000e+00  4.056318e+03  4.056318e+03 0.0 0.0 9.0
 3 -1 0 0 101   0  0.000000e+00  0.000000e+00 -1.707628e+03  1.707628e+03 0.0 0.0 9.0
22  1 1 2   0   0  1.135270e+03 -8.043883e+02 -1.271970e+03  1.885149e+03 0.0 0.0 9.0
 3  1 1 2 103   0 -1.135270e+03  8.043883e+02  3.620660e+03  3.878796e+03 0.096 0.0 9.0
#pdf 21 3 6.240489e-01 2.627119e-01 5000.0 4.331671e-04 5.694724e-02
</event>
<event>
4 7 1.0 5000.0 7.905138e-03 7.739137e-02
 3 -1 0 0 101   0  0.000000e+00  0.000000e+00  2.961305e+03  2.961305e+03 0.0 0.0 9.0
21 -1 0 0 103 101  0.000000e+00  0.000000e+00 -2.105274e+03  2.105274e+03 0.0 0.0 9.0
22  1 1 2   0   0  5.290968e+02 -2.616223e+02  2.889505e+03  2.949174e+03 0.0 0.0 9.0
 3  1 1 2 103   0 -5.290968e+02  2.616223e+02 -2.033473e+03  2.117405e+03 0.096 0.0 9.0
#pdf 3 21 4.555854e-01 3.238883e-01 5000.0 3.953663e-04 2.638031e-03
</event>
<event>
4 7 1.0 5000.0 7.905138e-03 7.739137e-02
 3 -1 0 0 101   0  0.000000e+00  0.000000e+00  2.369664e+03  2.369664e+03 0.0 0.0 9.0
21 -1 0 0 103 101  0.000000e+00  0.000000e+00 -2.010689e+03  2.010689e+03 0.0 0.0 9.0
 3  1 1 2 103   0 -2.164147e+03  1.337212e+01  4.649618e+02  2.213572e+03 0.096 0.0 9.0
22  1 1 2   0   0  2.164147e+03 -1.337212e+01 -1.059865e+02  2.166782e+03 0.0 0.0 9.0
#pdf 3 21 3.645638e-01 3.093368e-01 5000.0 1.509202e-03 3.210550e-03
</event>
<event>
4 7 1.0 5000.0 7.905138e-03 7.739137e-02
 3 -1 0 0 101   0  0.000000e+00  0.000000e+00  2.703009e+03  2.703009e+03 0.0 0.0 9.0
21 -1 0 0 103 101  0.000000e+00  0.000000e+00 -2.320744e+03  2.320744e+03 0.0 0.0 9.0
22  1 1 2   0   0 -7.960209e+02 -6.619992e+02 -2.096090e+03  2.337838e+03 0.0 0.0 9.0
 3  1 1 2 103   0  7.960209e+02  6.619992e+02  2.478356e+03  2.685915e+03 0.096 0.0 9.0
#pdf 3 21 4.158476e-01 3.570375e-01 5000.0 7.211642e-04 1.675084e-03
</event>
<event>
4 7 1.0 5000.0 7.905138e-03 7.739137e-02
 3 -1 0 0 101   0  0.000000e+00  0.000000e+00  3.937492e+03  3.937492e+03 0.0 0.0 9.0
21 -1 0 0 103 101  0.000000e+00  0.000000e+00 -1.511937e+03  1.511937e+03 0.0 0.0 9.0
22  1 1 2   0   0  7.252072e+02 -1.534996e+03  3.169780e+03  3.595781e+03 0.0 0.0 9.0
 3  1 1 2 103   0 -7.252072e+02  1.534996e+03 -7.442257e+02  1.853648e+03 0.096 0.0 9.0
#pdf 3 21 6.057679e-01 2.326057e-01 5000.0 3.295109e-05 8.724597e-03
</event>
<event>
4 7 1.0 5000.0 7.905138e-03 7.739137e-02
21 -1 0 0 103 101  0.000000e+00  0.000000e+00  1.955370e+03  1.955370e+03 0.0 0.0 9.0
 3 -1 0 0 101   0  0.000000e+00  0.000000e+00 -3.333848e+03  3.333848e+03 0.0 0.0 9.0
22  1 1 2   0   0 -1.152367e+03 -5.230542e+02  1.607653e+03  2.045992e+03 0.0 0.0 9.0
 3  1 1 2 103   0  1.152367e+03  5.230542e+02 -2.986132e+03  3.243226e+03 0.096 0.0 9.0
#pdf 21 3 3.008261e-01 5.128997e-01 5000.0 3.565208e-02 2.356180e-03
</event>
<event>
4 7 1.0 5000.0 7.905138e-03 7.739137e-02
 3 -1 0 0 101   0  0.000000e+00  0.000000e+00  2.964560e+03  2.964560e+03 0.0 0.0 9.0
21 -1 0 0 103 101  0.000000e+00  0.000000e+00 -2.131394e+03  2.131394e+03 0.0 0.0 9.0
 3  1 1 2 103   0  4.120867e+01 -2.421171e+03  1.100228e+03  2.659750e+03 0.096 0.0 9.0
22  1 1 2   0   0 -4.120867e+01  2.421171e+03 -2.670619e+02  2.436204e+03 0.0 0.0 9.0
#pdf 3 21 4.560862e-01 3.279068e-01 5000.0 3.922819e-04 2.498771e-03
</event>
<event>
4 7 1.0 5000.0 7.905138e-03 7.739137e-02
 3 -1 0 0 101   0  0.000000e+00  0.000000e+00  3.601281e+03  3.601281e+03 0.0 0.0 9.0
21 -1 0 0 103 101  0.000000e+00  0.000000e+00 -1.570483e+03  1.570483e+03 0.0 0.0 9.0
22  1 1 2   0   0  1.478378e+03 -6.092876e+01  3.039841e+03  3.380820e+03 0.0 0.0 9.0
 3  1 1 2 103   0 -1.478378e+03  6.092876e+01 -1.009043e+03  1.790944e+03 0.096 0.0 9.0
#pdf 3 21 5.540433e-01 2.416128e-01 5000.0 7.944843e-05 7.776610e-03
</event>
<event>
4 7 1.0 5000.0 7.905138e-03 7.739137e-02
 3 -1 0 0 101   0  0.000000e+00  0.000000e+00  2.001648e+03  2.001648e+03 0.0 0.0 9.0
21 -1 0 0 103 101  0.000000e+00  0.000000e+00 -3.019369e+03  3.019369e+03 0.0 0.0 9.0
 3  1 1 2 103   0  1.109908e+03 -1.857065e+03  6.834186e+02  2.268843e+03 0.096 0.0 9.0
22  1 1 2   0   0 -1.109908e+03  1.857065e+03 -1.701139e+03  2.752174e+03 0.0 0.0 9.0
#pdf 3 21 3.079459e-01 4.645182e-01 5000.0 3.271027e-03 3.437415e-04
</event>
<event>
4 7 1.0 5000.0 7.905138e-03 7.739137e-02
21 -1 0 0 103 101  0.000000e+00  0.000000e+00  2.176574e+03  2.176574e+03 0.0 0.0 9.0
 3 -1 0 0 101   0  0.000000e+00  0.000000e+00 -2.848942e+03  2.848942e+03 0.0 0.0 9.0
22  1 1 2   0   0 -5.888495e+01 -2.323413e+03 -1.238283e+03  2.633451e+03 0.0 0.0 9.0
 3  1 1 2 103   0  5.888495e+01  2.323413e+03  5.659156e+02  2.392066e+03 0.096 0.0 9.0
#pdf 21 3 3.348576e-01 4.382987e-01 5000.0 2.350264e-02 6.430641e-03
</event>
<event>
4 7 1.0 5000.0 7.905138e-03 7.739137e-02
 3 -1 0 0 101   0  0.000000e+00  0.000000e+00  2.259082e+03  2.259082e+03 0.0 0.0 9.0
21 -1 0 0 103 101  0.000000e+00  0.000000e+00 -2.777146e+03  2.777146e+03 0.0 0.0 9.0
22  1 1 2   0   0  4.503917e+00 -1.433288e+03  1.806057e+03  2.305683e+03 0.0 0.0 9.0
 3  1 1 2 103   0 -4.503917e+00  1.433288e+03 -2.324122e+03  2.730545e+03 0.096 0.0 9.0
#pdf 3 21 3.475510e-01 4.272533e-01 5000.0 1.911468e-03 6.084257e-04
</event>
<event>
4 7 1.0 5000.0 7.905138e-03 7.739137e-02
 3 -1 0 0 101   0  0.000000e+00  0.000000e+00  2.521642e+03  2.521642e+03 0.0 0.0 9.0
21 -1 0 0 103 101  0.000000e+00  0.000000e+00 -1.917042e+03  1.917042e+03 0.0 0.0 9.0
 3  1 1 2 103   0  1.813158e+03  6.104057e+02 -7.913863e+02  2.070369e+03 0.096 0.0 9.0
22  1 1 2   0   0 -1.813158e+03 -6.104057e+02  1.395987e+03  2.368315e+03 0.0 0.0 9.0
#pdf 3 21 3.879450e-01 2.949295e-01 5000.0 1.083719e-03 3.887534e-03
</event>
<event>
4 7 1.0 5000.0 7.905138e-03 7.739137e-02
 3 -1 0 0 101   0  0.000000e+00  0.000000e+00  2.436816e+03  2.436816e+03 0.0 0.0 9.0
21 -1 0 0 103 101  0.000000e+00  0.000000e+00 -2.701510e+03  2.701510e+03 0.0 0.0 9.0
22  1 1 2   0   0  2.291625e+03  9.973659e+02  4.487685e+02  2.539228e+03 0.0 0.0 9.0
 3  1 1 2 103   0 -2.291625e+03 -9.973659e+02 -7.134624e+02  2.599098e+03 0.096 0.0 9.0
#pdf 3 21 3.748948e-01 4.156169e-01 5000.0 1.305475e-03 7.236265e-04
</event>
<event>
4 7 1.0 5000.0 7.905138e-03 7.739137e-02
21 -1 0 0 103 101  0.000000e+00  0.000000e+00  2.986643e+03  2.986643e+03 0.0 0.0 9.0
 3 -1 0 0 101   0  0.000000e+00  0.000000e+00 -2.051616e+03  2.051616e+03 0.0 0.0 9.0
22  1 1 2   0   0  9.619437e+02  1.874157e+03 -8.553297e+02  2.273629e+03 0.0 0.0 9.0
 3  1 1 2 103   0 -9.619437e+02 -1.874157e+03  1.790357e+03  2.764630e+03 0.096 0.0 9.0
#pdf 21 3 4.594836e-01 3.156332e-01 5000.0 4.868903e-03 2.974761e-02
</event>
<event>
4 7 1.0 5000.0 7.905138e-03 7.739137e-02
21 -1 0 0 103 101  0.000000e+00  0.000000e+00  2.519299e+03  2.519299e+03 0.0 0.0 9.0
 3 -1 0 0 101   0  0.000000e+00  0.000000e+00 -2.475583e+03  2.475583e+03 0.0 0.0 9.0
22  1 1 2   0   0 -2.430720e+02 -1.121084e+03  2.240235e+03  2.516857e+03 0.0 0.0 9.0
 3  1 1 2 103   0  2.430720e+02  1.121084e+03 -2.196519e+03  2.478025e+03 0.096 0.0 9.0
#pdf 21 3 3.875845e-01 3.808589e-01 5000.0 1.225100e-02 1.333212e-02
</event>
<event>
4 7 1.0 5000.0 7.905138e-03 7.739137e-02
 3 -1 0 0 101   0  0.000000e+00  0.000000e+00  3.537621e+03  3.537621e+03 0.0 0.0 9.0
21 -1 0 0 103 101  0.000000e+00  0.000000e+00 -1.776610e+03  1.776610e+03 0.0 0.0 9.0
22  1 1 2   0   0  1.941107e+02 -2.231616e+03 -3.125989e+02  2.261749e+03 0.0 0.0 9.0
 3  1 1 2 103   0 -1.941107e+02  2.231616e+03  2.073610e+03  3.052482e+03 0.096 0.0 9.0
#pdf 3 21 5.442494e-01 2.733246e-01 5000.0 9.378007e-05 5.154374e-03
</event>
<event>
4 7 1.0 5000.0 7.905138e-03 7.739137e-02
 3 -1 0 0 101   0  0.000000e+00  0.000000e+00  2.071962e+03  2.071962e+03 0.0 0.0 9.0
21 -1 0 0 103 101  0.000000e+00  0.000000e+00 -2.872978e+03  2.872978e+03 0.0 0.0 9.0
22  1 1 2   0   0  3.898300e+02  2.101776e+03 -1.592375e+03  2.665537e+03 0.0 0.0 9.0
 3  1 1 2 103   0 -3.898300e+02 -2.101776e+03  7.913591e+02  2.279403e+03 0.096 0.0 9.0
#pdf 3 21 3.187633e-01 4.419966e-01 5000.0 2.826510e-03 4.874563e-04
</event>
<event>
4 7 1.0 5000.0 7.905138e-03 7.739137e-02
 3 -1 0 0 101   0  0.000000e+00  0.000000e+00  2.128740e+03  2.128740e+03 0.0 0.0 9.0
21 -1 0 0 103 101  0.000000e+00  0.000000e+00 -2.780945e+03  2.780945e+03 0.0 0.0 9.0
 3  1 1 2 103   0  1.865969e+03 -1.054385e+03  8.358624e+02  2.300486e+03 0.096 0.0 9.0
22  1 1 2   0   0 -1.865969e+03  1.054385e+03 -1.488068e+03  2.609198e+03 0.0 0.0 9.0
#pdf 3 21 3.274984e-01 4.278377e-01 5000.0 2.512603e-03 6.030928e-04
</event>
<event>
4 7 1.0 5000.0 7.905138e-03 7.739137e-02
 4 -1 0 0 101   0  0.000000e+00  0.000000e+00  3.529069e+03  3.529069e+03 0.0 0.0 9.0
21 -1 0 0 103 101  0.000000e+00  0.000000e+00 -1.713206e+03  1.713206e+03 0.0 0.0 9.0
 4  1 1 2 103   0  1.691269e+03 -1.204817e+03 -4.958042e+02  2.134900e+03 1.27 0.0 9.0
22  1 1 2   0   0 -1.691269e+03  1.204817e+03  2.311667e+03  3.107375e+03 0.0 0.0 9.0
#pdf 4 21 5.429338e-01 2.635702e-01 5000.0 4.133469e-05 2.453720e-03
</event>
<event>
4 7 1.0 5000.0 7.905138e-03 7.739137e-02
 4 -1 0 0 101   0  0.000000e+00  0.000000e+00  2.175831e+03  2.175831e+03 0.0 0.0 9.0
21 -1 0 0 103 101  0.000000e+00  0.000000e+00 -2.017664e+03  2.017664e+03 0.0 0.0 9.0
 4  1 1 2 103   0 -1.104665e+03  1.462400e+03  1.095286e+03  2.135077e+03 1.27 0.0 9.0
22  1 1 2   0   0  1.104665e+03 -1.462400e+03 -9.371186e+02  2.058420e+03 0.0 0.0 9.0
#pdf 4 21 3.347433e-01 3.104099e-01 5000.0 8.858010e-04 1.257948e-03
</event>
<event>
4 7 1.0 5000.0 7.905138e-03 7.739137e-02
 4 -1 0 0 101   0  0.000000e+00  0.000000e+00  2.986790e+03  2.986790e+03 0.0 0.0 9.0
21 -1 0 0 103 101  0.000000e+00  0.000000e+00 -2.074757e+03  2.074757e+03 0.0 0.0 9.0
22  1 1 2   0   0  2.170761e+03 -1.067784e+03  1.052721e+03  2.638293e+03 0.0 0.0 9.0
 4  1 1 2 103   0 -2.170761e+03  1.067784e+03 -1.406890e+02  2.423254e+03 1.27 0.0 9.0
#pdf 4 21 4.595061e-01 3.191934e-01 5000.0 1.414910e-04 1.107559e-03
</event>
<event>
4 7 1.0 5000.0 7.905138e-03 7.739137e-02
21 -1 0 0 103 101  0.000000e+00  0.000000e+00  2.277882e+03  2.277882e+03 0.0 0.0 9.0
 4 -1 0 0 101   0  0.000000e+00  0.000000e+00 -2.355528e+03  2.355528e+03 0.0 0.0 9.0
22  1 1 2   0   0  7.567163e+02  2.036243e+02 -2.218929e+03  2.353238e+03 0.0 0.0 9.0
 4  1 1 2 103   0 -7.567163e+02 -2.036243e+02  2.141280e+03  2.280167e+03 1.27 0.0 9.0
#pdf 21 4 3.504435e-01 3.623890e-01 5000.0 1.941330e-02 1.675116e-02
</event>
<event>
4 7 1.0 5000.0 7.905138e-03 7.739137e-02
21 -1 0 0 103 101  0.000000e+00  0.000000e+00  3.213843e+03  3.213843e+03 0.0 0.0 9.0
 4 -1 0 0 101   0  0.000000e+00  0.000000e+00 -1.957577e+03  1.957577e+03 0.0 0.0 9.0
22  1 1 2   0   0  6.737372e+00  1.811083e+03  2.417023e+03  3.020276e+03 0.0 0.0 9.0
 4  1 1 2 103   0 -6.737372e+00 -1.811083e+03 -1.160757e+03  2.151144e+03 1.27 0.0 9.0
#pdf 21 4 4.944373e-01 3.011657e-01 5000.0 3.042729e-03 3.550909e-02
</event>
<event>
4 7 1.0 5000.0 7.905138e-03 7.739137e-02
 4 -1 0 0 101   0  0.000000e+00  0.000000e+00  2.069150e+03  2.069150e+03 0.0 0.0 9.0
21 -1 0 0 103 101  0.000000e+00  0.000000e+00 -3.069914e+03  3.069914e+03 0.0 0.0 9.0
 4  1 1 2 103   0 -1.506354e+03 -6.481488e+01  1.558644e+03  2.168565e+03 1.27 0.0 9.0
22  1 1 2   0   0  1.506354e+03  6.481488e+01 -2.559408e+03  2.970500e+03 0.0 0.0 9.0
#pdf 4 21 3.183308e-01 4.722945e-01 5000.0 1.121394e-03 1.169134e-04
</event>
<event>
4 7 1.0 5000.0 7.905138e-03 7.739137e-02
 4 -1 0 0 101   0  0.000000e+00  0.000000e+00  2.794442e+03  2.794442e+03 0.0 0.0 9.0
21 -1 0 0 103 101  0.000000e+00  0.000000e+00 -2.337031e+03  2.337031e+03 0.0 0.0 9.0
22  1 1 2   0   0  8.879288e+02 -1.171871e+03 -1.869862e+03  2.378673e+03 0.0 0.0 9.0
 4  1 1 2 103   0 -8.879288e+02  1.171871e+03  2.327272e+03  2.752798e+03 1.27 0.0 9.0
#pdf 4 21 4.299141e-01 3.595432e-01 5000.0 2.199252e-04 6.187413e-04
</event>
<event>
4 7 1.0 5000.0 7.905138e-03 7.739137e-02
21 -1 0 0 103 101  0.000000e+00  0.000000e+00  2.440210e+03  2.440210e+03 0.0 0.0 9.0
 4 -1 0 0 101   0  0.000000e+00  0.000000e+00 -2.521322e+03  2.521322e+03 0.0 0.0 9.0
22  1 1 2   0   0  1.250462e+02  2.352338e+03 -8.174625e+02  2.493467e+03 0.0 0.0 9.0
 4  1 1 2 103   0 -1.250462e+02 -2.352338e+03  7.363497e+02  2.468065e+03 1.27 0.0 9.0
#pdf 21 4 3.754169e-01 3.878957e-01 5000.0 1.426132e-02 1.220299e-02
</event>
<event>
4 7 1.0 5000.0 7.905138e-03 7.739137e-02
 4 -1 0 0 101   0  0.000000e+00  0.000000e+00  1.366038e+03  1.366038e+03 0.0 0.0 9.0
21 -1 0 0 103 101  0.000000e+00  0.000000e+00 -4.791664e+03  4.791664e+03 0.0 0.0 9.0
22  1 1 2   0   0 -1.888991e+03  4.211563e+02  3.008556e+02  1.958616e+03 0.0 0.0 9.0
 4  1 1 2 103   0  1.888991e+03 -4.211563e+02 -3.726482e+03  4.199087e+03 1.27 0.0 9.0
#pdf 4 21 2.101596e-01 7.371791e-01 5000.0 5.297888e-03 3.834976e-06
</event>
<event>
4 7 1.0 5000.0 7.905138e-03 7.739137e-02
 4 -1 0 0 101   0  0.000000e+00  0.000000e+00  2.629430e+03  2.629430e+03 0.0 0.0 9.0
21 -1 0 0 103 101  0.000000e+00  0.000000e+00 -2.379147e+03  2.379147e+03 0.0 0.0 9.0
 4  1 1 2 103   0  2.374957e+03  1.536297e+01 -6.601497e+02  2.465047e+03 1.27 0.0 9.0
22  1 1 2   0   0 -2.374957e+03 -1.536297e+01  9.104320e+02  2.543530e+03 0.0 0.0 9.0
#pdf 4 21 4.045276e-01 3.660226e-01 5000.0 3.204959e-04 5.634399e-04
</event>
<event>
4 7 1.0 5000.0 7.905138e-03 7.739137e-02
21 -1 0 0 103 101  0.000000e+00  0.000000e+00  1.802728e+03  1.802728e+03 0.0 0.0 9.0
 4 -1 0 0 101   0  0.000000e+00  0.000000e+00 -3.407123e+03  3.407123e+03 0.0 0.0 9.0
22  1 1 2   0   0  5.593530e+02 -7.822576e+02 -3.203017e+03  3.344267e+03 0.0 0.0 9.0
 4  1 1 2 103   0 -5.593530e+02  7.822576e+02  1.598621e+03  1.865580e+03 1.27 0.0 9.0
#pdf 21 4 2.773427e-01 5.241728e-01 5000.0 4.755478e-02 2.009608e-03
</event>
<event>
4 7 1.0 5000.0 7.905138e-03 7.739137e-02
21 -1 0 0 103 101  0.000000e+00  0.000000e+00  1.439157e+03  1.439157e+03 0.0 0.0 9.0
 5 -1 0 0 101   0  0.000000e+00  0.000000e+00 -3.092323e+03  3.092323e+03 0.0 0.0 9.0
 5  1 1 2 103   0  2.064781e+03 -4.248152e+02 -9.134404e+02  2.297429e+03 4.18 0.0 9.0
22  1 1 2   0   0 -2.064781e+03  4.248152e+02 -7.397254e+02  2.234051e+03 0.0 0.0 9.0
#pdf 21 5 2.214088e-01 4.757420e-01 5000.0 9.553664e-02 3.921423e-03
</event>
<event>
4 7 1.0 5000.0 7.905138e-03 7.739137e-02
 5 -1 0 0 101   0  0.000000e+00  0.000000e+00  3.699533e+03  3.699533e+03 0.0 0.0 9.0
21 -1 0 0 103 101  0.000000e+00  0.000000e+00 -1.706137e+03  1.706137e+03 0.0 0.0 9.0
 5  1 1 2 103   0 -2.026662e+03  5.386743e+02 -4.918110e+02  2.153932e+03 4.18 0.0 9.0
22  1 1 2   0   0  2.026662e+03 -5.386743e+02  2.485202e+03  3.251731e+03 0.0 0.0 9.0
#pdf 5 21 5.691589e-01 2.624826e-01 5000.0 1.890420e-05 1.546702e-03
</event>
<event>
4 7 1.0 5000.0 7.905138e-03 7.739137e-02
21 -1 0 0 103 101  0.000000e+00  0.000000e+00  2.786235e+03  2.786235e+03 0.0 0.0 9.0
 5 -1 0 0 101   0  0.000000e+00  0.000000e+00 -2.248171e+03  2.248171e+03 0.0 0.0 9.0
 5  1 1 2 103   0  1.028538e+03  5.545722e+02 -1.956962e+03  2.279289e+03 4.18 0.0 9.0
22  1 1 2   0   0 -1.028538e+03 -5.545722e+02  2.495008e+03  2.755088e+03 0.0 0.0 9.0
#pdf 21 5 4.286516e-01 3.458725e-01 5000.0 7.275740e-03 2.053402e-02
</event>
<event>
4 7 1.0 5000.0 7.905138e-03 7.739137e-02
 5 -1 0 0 101   0  0.000000e+00  0.000000e+00  2.395249e+03  2.395249e+03 0.0 0.0 9.0
21 -1 0 0 103 101  0.000000e+00  0.000000e+00 -2.580019e+03  2.580019e+03 0.0 0.0 9.0
 5  1 1 2 103   0 -5.088664e+02  2.405782e+03 -4.573893e+02  2.501191e+03 4.18 0.0 9.0
22  1 1 2   0   0  5.088664e+02 -2.405782e+03  2.726181e+02  2.474076e+03 0.0 0.0 9.0
#pdf 5 21 3.684998e-01 3.969260e-01 5000.0 3.333203e-04 2.203637e-04
</event>
<event>
4 7 1.0 5000.0 7.905138e-03 7.739137e-02
 5 -1 0 0 101   0  0.000000e+00  0.000000e+00  2.039070e+03  2.039070e+03 0.0 0.0 9.0
21 -1 0 0 103 101  0.000000e+00  0.000000e+00 -3.077976e+03  3.077976e+03 0.0 0.0 9.0
 5  1 1 2 103   0 -5.844566e+02 -3.299191e+02 -2.984423e+03  3.058960e+03 4.18 0.0 9.0
22  1 1 2   0   0  5.844566e+02  3.299191e+02  1.945490e+03  2.058000e+03 0.0 0.0 9.0
#pdf 5 21 3.137032e-01 4.735347e-01 5000.0 7.377480e-04 7.190317e-05
</event>
<event>
4 7 1.0 5000.0 7.905138e-03 7.739137e-02
 5 -1 0 0 101   0  0.000000e+00  0.000000e+00  3.498570e+03  3.498570e+03 0.0 0.0 9.0
21 -1 0 0 103 101  0.000000e+00  0.000000e+00 -1.736274e+03  1.736274e+03 0.0 0.0 9.0
22  1 1 2   0   0  2.331748e+03 -1.051752e+02  4.066712e+01  2.334477e+03 0.0 0.0 9.0
 5  1 1 2 103   0 -2.331748e+03  1.051752e+02  1.721628e+03  2.900364e+03 4.18 0.0 9.0
#pdf 5 21 5.382416e-01 2.671190e-01 5000.0 2.862555e-05 1.445736e-03
</event>
<event>
4 7 1.0 5000.0 7.905138e-03 7.739137e-02
 5 -1 0 0 101   0  0.000000e+00  0.000000e+00  1.499499e+03  1.499499e+03 0.0 0.0 9.0
21 -1 0 0 103 101  0.000000e+00  0.000000e+00 -4.272544e+03  4.272544e+03 0.0 0.0 9.0
22  1 1 2   0   0  1.166298e+03  1.037970e+03  8.850527e+02  1.794706e+03 0.0 0.0 9.0
 5  1 1 2 103   0 -1.166298e+03 -1.037970e+03 -3.658098e+03  3.977350e+03 4.18 0.0 9.0
#pdf 5 21 2.306921e-01 6.573145e-01 5000.0 2.461021e-03 6.567111e-06
</event>
</LesHouchesEvents>
